version 3
run EDVRPComparisonEDVRP-3-20250705-23:46:05-97481
attr configname EDVRPComparisonEDVRP
attr datetime 20250705-23:46:05
attr datetimef 20250705-234605
attr experiment EDVRPComparisonEDVRP
attr inifile omnetpp.ini
attr iterationvars ""
attr iterationvarsd ""
attr iterationvarsf ""
attr measurement ""
attr network edvrp.simulations.EDVRPTestNetwork
attr processid 97481
attr repetition 3
attr replication #3
attr resultdir results
attr runnumber 3
attr seedset 3
config description "EDVRP behavior on comparison topology"
config network edvrp.simulations.EDVRPTestNetwork
config sim-time-limit 200s
config repeat 5
config cmdenv-express-mode false
config cmdenv-autoflush true
config **.router*.**.result-recording-modes +vector,+histogram,+stats
config network edvrp.simulations.EDVRPTestNetwork
config sim-time-limit 300s
config seed-set 3
config num-rngs 3
config rng-class cMersenneTwister
config output-scalar-file results/EDVRPComparisonEDVRP-3.sca
config output-vector-file results/EDVRPComparisonEDVRP-3.vec
config eventlog-file results/EDVRPComparisonEDVRP-3.elog
config **.scalar-recording true
config **.vector-recording true
config **.router*.convergenceTimeSignal.result-recording-modes +histogram,+stats
config **.router*.routingTableSizeSignal.result-recording-modes +vector,+stats
config **.router*.messageCountSignal.result-recording-modes +count,+sum
config debug-on-errors true
config print-undisposed true

vector 0 EDVRPTestNetwork.router1.port$o[0].channel busy:vector ETV
attr interpolationmode sample-hold
attr recordingmode vector
attr source channelBusy
vector 1 EDVRPTestNetwork.router1.port$o[0].channel utilization:vector ETV
attr recordingmode vector
attr source timeavg(channelBusy)
vector 2 EDVRPTestNetwork.router1.port$o[0].channel packets:vector ETV
attr interpolationmode none
attr recordingmode vector
attr source constant1(messageSent)
vector 3 EDVRPTestNetwork.router1.port$o[0].channel packetBytes:vector ETV
attr interpolationmode none
attr recordingmode vector
attr source packetBytes(messageSent)
attr unit B
vector 4 EDVRPTestNetwork.router1.port$o[0].channel packetsDiscarded:vector ETV
attr interpolationmode none
attr recordingmode vector
attr source constant1(messageDiscarded)
vector 5 EDVRPTestNetwork.router1.port$o[0].channel throughput:vector ETV
attr recordingmode vector
attr source sumPerDuration(packetBits(messageSent))
attr unit bps
vector 6 EDVRPTestNetwork.router2.port$o[0].channel busy:vector ETV
attr interpolationmode sample-hold
attr recordingmode vector
attr source channelBusy
vector 7 EDVRPTestNetwork.router2.port$o[0].channel utilization:vector ETV
attr recordingmode vector
attr source timeavg(channelBusy)
vector 8 EDVRPTestNetwork.router2.port$o[0].channel packets:vector ETV
attr interpolationmode none
attr recordingmode vector
attr source constant1(messageSent)
vector 9 EDVRPTestNetwork.router2.port$o[0].channel packetBytes:vector ETV
attr interpolationmode none
attr recordingmode vector
attr source packetBytes(messageSent)
attr unit B
vector 10 EDVRPTestNetwork.router2.port$o[0].channel packetsDiscarded:vector ETV
attr interpolationmode none
attr recordingmode vector
attr source constant1(messageDiscarded)
vector 11 EDVRPTestNetwork.router2.port$o[0].channel throughput:vector ETV
attr recordingmode vector
attr source sumPerDuration(packetBits(messageSent))
attr unit bps
vector 12 EDVRPTestNetwork.router2.port$o[1].channel busy:vector ETV
attr interpolationmode sample-hold
attr recordingmode vector
attr source channelBusy
vector 13 EDVRPTestNetwork.router2.port$o[1].channel utilization:vector ETV
attr recordingmode vector
attr source timeavg(channelBusy)
vector 14 EDVRPTestNetwork.router2.port$o[1].channel packets:vector ETV
attr interpolationmode none
attr recordingmode vector
attr source constant1(messageSent)
vector 15 EDVRPTestNetwork.router2.port$o[1].channel packetBytes:vector ETV
attr interpolationmode none
attr recordingmode vector
attr source packetBytes(messageSent)
attr unit B
vector 16 EDVRPTestNetwork.router2.port$o[1].channel packetsDiscarded:vector ETV
attr interpolationmode none
attr recordingmode vector
attr source constant1(messageDiscarded)
vector 17 EDVRPTestNetwork.router2.port$o[1].channel throughput:vector ETV
attr recordingmode vector
attr source sumPerDuration(packetBits(messageSent))
attr unit bps
vector 18 EDVRPTestNetwork.router3.port$o[0].channel busy:vector ETV
attr interpolationmode sample-hold
attr recordingmode vector
attr source channelBusy
vector 19 EDVRPTestNetwork.router3.port$o[0].channel utilization:vector ETV
attr recordingmode vector
attr source timeavg(channelBusy)
vector 20 EDVRPTestNetwork.router3.port$o[0].channel packets:vector ETV
attr interpolationmode none
attr recordingmode vector
attr source constant1(messageSent)
vector 21 EDVRPTestNetwork.router3.port$o[0].channel packetBytes:vector ETV
attr interpolationmode none
attr recordingmode vector
attr source packetBytes(messageSent)
attr unit B
vector 22 EDVRPTestNetwork.router3.port$o[0].channel packetsDiscarded:vector ETV
attr interpolationmode none
attr recordingmode vector
attr source constant1(messageDiscarded)
vector 23 EDVRPTestNetwork.router3.port$o[0].channel throughput:vector ETV
attr recordingmode vector
attr source sumPerDuration(packetBits(messageSent))
attr unit bps
vector 24 EDVRPTestNetwork.router3.port$o[1].channel busy:vector ETV
attr interpolationmode sample-hold
attr recordingmode vector
attr source channelBusy
vector 25 EDVRPTestNetwork.router3.port$o[1].channel utilization:vector ETV
attr recordingmode vector
attr source timeavg(channelBusy)
vector 26 EDVRPTestNetwork.router3.port$o[1].channel packets:vector ETV
attr interpolationmode none
attr recordingmode vector
attr source constant1(messageSent)
vector 27 EDVRPTestNetwork.router3.port$o[1].channel packetBytes:vector ETV
attr interpolationmode none
attr recordingmode vector
attr source packetBytes(messageSent)
attr unit B
vector 28 EDVRPTestNetwork.router3.port$o[1].channel packetsDiscarded:vector ETV
attr interpolationmode none
attr recordingmode vector
attr source constant1(messageDiscarded)
vector 29 EDVRPTestNetwork.router3.port$o[1].channel throughput:vector ETV
attr recordingmode vector
attr source sumPerDuration(packetBits(messageSent))
attr unit bps
vector 30 EDVRPTestNetwork.router4.port$o[0].channel busy:vector ETV
attr interpolationmode sample-hold
attr recordingmode vector
attr source channelBusy
vector 31 EDVRPTestNetwork.router4.port$o[0].channel utilization:vector ETV
attr recordingmode vector
attr source timeavg(channelBusy)
vector 32 EDVRPTestNetwork.router4.port$o[0].channel packets:vector ETV
attr interpolationmode none
attr recordingmode vector
attr source constant1(messageSent)
vector 33 EDVRPTestNetwork.router4.port$o[0].channel packetBytes:vector ETV
attr interpolationmode none
attr recordingmode vector
attr source packetBytes(messageSent)
attr unit B
vector 34 EDVRPTestNetwork.router4.port$o[0].channel packetsDiscarded:vector ETV
attr interpolationmode none
attr recordingmode vector
attr source constant1(messageDiscarded)
vector 35 EDVRPTestNetwork.router4.port$o[0].channel throughput:vector ETV
attr recordingmode vector
attr source sumPerDuration(packetBits(messageSent))
attr unit bps
vector 36 EDVRPTestNetwork.router2.port$o[2].channel busy:vector ETV
attr interpolationmode sample-hold
attr recordingmode vector
attr source channelBusy
vector 37 EDVRPTestNetwork.router2.port$o[2].channel utilization:vector ETV
attr recordingmode vector
attr source timeavg(channelBusy)
vector 38 EDVRPTestNetwork.router2.port$o[2].channel packets:vector ETV
attr interpolationmode none
attr recordingmode vector
attr source constant1(messageSent)
vector 39 EDVRPTestNetwork.router2.port$o[2].channel packetBytes:vector ETV
attr interpolationmode none
attr recordingmode vector
attr source packetBytes(messageSent)
attr unit B
vector 40 EDVRPTestNetwork.router2.port$o[2].channel packetsDiscarded:vector ETV
attr interpolationmode none
attr recordingmode vector
attr source constant1(messageDiscarded)
vector 41 EDVRPTestNetwork.router2.port$o[2].channel throughput:vector ETV
attr recordingmode vector
attr source sumPerDuration(packetBits(messageSent))
attr unit bps
vector 42 EDVRPTestNetwork.router5.port$o[0].channel busy:vector ETV
attr interpolationmode sample-hold
attr recordingmode vector
attr source channelBusy
vector 43 EDVRPTestNetwork.router5.port$o[0].channel utilization:vector ETV
attr recordingmode vector
attr source timeavg(channelBusy)
vector 44 EDVRPTestNetwork.router5.port$o[0].channel packets:vector ETV
attr interpolationmode none
attr recordingmode vector
attr source constant1(messageSent)
vector 45 EDVRPTestNetwork.router5.port$o[0].channel packetBytes:vector ETV
attr interpolationmode none
attr recordingmode vector
attr source packetBytes(messageSent)
attr unit B
vector 46 EDVRPTestNetwork.router5.port$o[0].channel packetsDiscarded:vector ETV
attr interpolationmode none
attr recordingmode vector
attr source constant1(messageDiscarded)
vector 47 EDVRPTestNetwork.router5.port$o[0].channel throughput:vector ETV
attr recordingmode vector
attr source sumPerDuration(packetBits(messageSent))
attr unit bps
vector 48 EDVRPTestNetwork.router3.port$o[2].channel busy:vector ETV
attr interpolationmode sample-hold
attr recordingmode vector
attr source channelBusy
vector 49 EDVRPTestNetwork.router3.port$o[2].channel utilization:vector ETV
attr recordingmode vector
attr source timeavg(channelBusy)
vector 50 EDVRPTestNetwork.router3.port$o[2].channel packets:vector ETV
attr interpolationmode none
attr recordingmode vector
attr source constant1(messageSent)
vector 51 EDVRPTestNetwork.router3.port$o[2].channel packetBytes:vector ETV
attr interpolationmode none
attr recordingmode vector
attr source packetBytes(messageSent)
attr unit B
vector 52 EDVRPTestNetwork.router3.port$o[2].channel packetsDiscarded:vector ETV
attr interpolationmode none
attr recordingmode vector
attr source constant1(messageDiscarded)
vector 53 EDVRPTestNetwork.router3.port$o[2].channel throughput:vector ETV
attr recordingmode vector
attr source sumPerDuration(packetBits(messageSent))
attr unit bps
vector 54 EDVRPTestNetwork.router6.port$o[0].channel busy:vector ETV
attr interpolationmode sample-hold
attr recordingmode vector
attr source channelBusy
vector 55 EDVRPTestNetwork.router6.port$o[0].channel utilization:vector ETV
attr recordingmode vector
attr source timeavg(channelBusy)
vector 56 EDVRPTestNetwork.router6.port$o[0].channel packets:vector ETV
attr interpolationmode none
attr recordingmode vector
attr source constant1(messageSent)
vector 57 EDVRPTestNetwork.router6.port$o[0].channel packetBytes:vector ETV
attr interpolationmode none
attr recordingmode vector
attr source packetBytes(messageSent)
attr unit B
vector 58 EDVRPTestNetwork.router6.port$o[0].channel packetsDiscarded:vector ETV
attr interpolationmode none
attr recordingmode vector
attr source constant1(messageDiscarded)
vector 59 EDVRPTestNetwork.router6.port$o[0].channel throughput:vector ETV
attr recordingmode vector
attr source sumPerDuration(packetBits(messageSent))
attr unit bps
vector 60 EDVRPTestNetwork.router5.port$o[1].channel busy:vector ETV
attr interpolationmode sample-hold
attr recordingmode vector
attr source channelBusy
vector 61 EDVRPTestNetwork.router5.port$o[1].channel utilization:vector ETV
attr recordingmode vector
attr source timeavg(channelBusy)
vector 62 EDVRPTestNetwork.router5.port$o[1].channel packets:vector ETV
attr interpolationmode none
attr recordingmode vector
attr source constant1(messageSent)
vector 63 EDVRPTestNetwork.router5.port$o[1].channel packetBytes:vector ETV
attr interpolationmode none
attr recordingmode vector
attr source packetBytes(messageSent)
attr unit B
vector 64 EDVRPTestNetwork.router5.port$o[1].channel packetsDiscarded:vector ETV
attr interpolationmode none
attr recordingmode vector
attr source constant1(messageDiscarded)
vector 65 EDVRPTestNetwork.router5.port$o[1].channel throughput:vector ETV
attr recordingmode vector
attr source sumPerDuration(packetBits(messageSent))
attr unit bps
vector 66 EDVRPTestNetwork.router6.port$o[1].channel busy:vector ETV
attr interpolationmode sample-hold
attr recordingmode vector
attr source channelBusy
vector 67 EDVRPTestNetwork.router6.port$o[1].channel utilization:vector ETV
attr recordingmode vector
attr source timeavg(channelBusy)
vector 68 EDVRPTestNetwork.router6.port$o[1].channel packets:vector ETV
attr interpolationmode none
attr recordingmode vector
attr source constant1(messageSent)
vector 69 EDVRPTestNetwork.router6.port$o[1].channel packetBytes:vector ETV
attr interpolationmode none
attr recordingmode vector
attr source packetBytes(messageSent)
attr unit B
vector 70 EDVRPTestNetwork.router6.port$o[1].channel packetsDiscarded:vector ETV
attr interpolationmode none
attr recordingmode vector
attr source constant1(messageDiscarded)
vector 71 EDVRPTestNetwork.router6.port$o[1].channel throughput:vector ETV
attr recordingmode vector
attr source sumPerDuration(packetBits(messageSent))
attr unit bps
0	0	0	0
0	4	0	0
0	16	0.010374158155	0
0	44	0.470789830502	0
0	117	0.81222933805	0
0	195	5.010374158155	0
0	273	10.010374158155	0
0	351	15.010374158155	0
0	429	20.010374158155	0
0	507	25.010374158155	0
0	545	30.010374158155	0
0	603	31.297861805651	0
0	681	35.010374158155	0
0	759	40.010374158155	0
0	837	45.010374158155	0
0	915	50.010374158155	0
0	993	55.010374158155	0
0	1071	60.010374158155	0
0	1149	65.010374158155	0
0	1227	70.010374158155	0
0	1305	75.010374158155	0
0	1383	80.010374158155	0
0	1461	85.010374158155	0
0	1539	90.010374158155	0
0	1617	95.010374158155	0
0	1695	100.010374158155	0
0	1773	105.010374158155	0
0	1851	110.010374158155	0
0	1929	115.010374158155	0
0	2007	120.010374158155	0
0	2085	125.010374158155	0
0	2163	130.010374158155	0
0	2241	135.010374158155	0
0	2319	140.010374158155	0
0	2397	145.010374158155	0
0	2475	150.010374158155	0
0	2553	155.010374158155	0
0	2631	160.010374158155	0
0	2709	165.010374158155	0
0	2787	170.010374158155	0
0	2865	175.010374158155	0
0	2943	180.010374158155	0
0	3021	185.010374158155	0
0	3099	190.010374158155	0
0	3174	195.010374158155	0
1	16	0.010374158155	0
1	44	0.470789830502	0
1	117	0.81222933805	0
1	195	5.010374158155	0
1	273	10.010374158155	0
1	351	15.010374158155	0
1	429	20.010374158155	0
1	507	25.010374158155	0
1	545	30.010374158155	0
1	603	31.297861805651	0
1	681	35.010374158155	0
1	759	40.010374158155	0
1	837	45.010374158155	0
1	915	50.010374158155	0
1	993	55.010374158155	0
1	1071	60.010374158155	0
1	1149	65.010374158155	0
1	1227	70.010374158155	0
1	1305	75.010374158155	0
1	1383	80.010374158155	0
1	1461	85.010374158155	0
1	1539	90.010374158155	0
1	1617	95.010374158155	0
1	1695	100.010374158155	0
1	1773	105.010374158155	0
1	1851	110.010374158155	0
1	1929	115.010374158155	0
1	2007	120.010374158155	0
1	2085	125.010374158155	0
1	2163	130.010374158155	0
1	2241	135.010374158155	0
1	2319	140.010374158155	0
1	2397	145.010374158155	0
1	2475	150.010374158155	0
1	2553	155.010374158155	0
1	2631	160.010374158155	0
1	2709	165.010374158155	0
1	2787	170.010374158155	0
1	2865	175.010374158155	0
1	2943	180.010374158155	0
1	3021	185.010374158155	0
1	3099	190.010374158155	0
1	3174	195.010374158155	0
2	0	0	1
2	4	0.010374158155	1
2	16	0.470789830502	1
2	44	0.81222933805	1
2	117	5.010374158155	1
2	195	10.010374158155	1
2	273	15.010374158155	1
2	351	20.010374158155	1
2	429	25.010374158155	1
2	507	30.010374158155	1
2	545	31.297861805651	1
2	603	35.010374158155	1
2	681	40.010374158155	1
2	759	45.010374158155	1
2	837	50.010374158155	1
2	915	55.010374158155	1
2	993	60.010374158155	1
2	1071	65.010374158155	1
2	1149	70.010374158155	1
2	1227	75.010374158155	1
2	1305	80.010374158155	1
2	1383	85.010374158155	1
2	1461	90.010374158155	1
2	1539	95.010374158155	1
2	1617	100.010374158155	1
2	1695	105.010374158155	1
2	1773	110.010374158155	1
2	1851	115.010374158155	1
2	1929	120.010374158155	1
2	2007	125.010374158155	1
2	2085	130.010374158155	1
2	2163	135.010374158155	1
2	2241	140.010374158155	1
2	2319	145.010374158155	1
2	2397	150.010374158155	1
2	2475	155.010374158155	1
2	2553	160.010374158155	1
2	2631	165.010374158155	1
2	2709	170.010374158155	1
2	2787	175.010374158155	1
2	2865	180.010374158155	1
2	2943	185.010374158155	1
2	3021	190.010374158155	1
2	3099	195.010374158155	1
3	4	0.010374158155	0
3	16	0.470789830502	0
3	44	0.81222933805	0
3	117	5.010374158155	0
3	195	10.010374158155	0
3	273	15.010374158155	0
3	351	20.010374158155	0
3	429	25.010374158155	0
3	507	30.010374158155	0
3	545	31.297861805651	0
3	603	35.010374158155	0
3	681	40.010374158155	0
3	759	45.010374158155	0
3	837	50.010374158155	0
3	915	55.010374158155	0
3	993	60.010374158155	0
3	1071	65.010374158155	0
3	1149	70.010374158155	0
3	1227	75.010374158155	0
3	1305	80.010374158155	0
3	1383	85.010374158155	0
3	1461	90.010374158155	0
3	1539	95.010374158155	0
3	1617	100.010374158155	0
3	1695	105.010374158155	0
3	1773	110.010374158155	0
3	1851	115.010374158155	0
3	1929	120.010374158155	0
3	2007	125.010374158155	0
3	2085	130.010374158155	0
3	2163	135.010374158155	0
3	2241	140.010374158155	0
3	2319	145.010374158155	0
3	2397	150.010374158155	0
3	2475	155.010374158155	0
3	2553	160.010374158155	0
3	2631	165.010374158155	0
3	2709	170.010374158155	0
3	2787	175.010374158155	0
3	2865	180.010374158155	0
3	2943	185.010374158155	0
3	3021	190.010374158155	0
3	3099	195.010374158155	0
4	0	0	1
5	4	0.010374158155	0
5	16	0.470789830502	0
5	44	0.81222933805	0
5	117	5.010374158155	0
5	195	10.010374158155	0
5	273	15.010374158155	0
5	351	20.010374158155	0
5	429	25.010374158155	0
5	507	30.010374158155	0
5	545	31.297861805651	0
5	603	35.010374158155	0
5	681	40.010374158155	0
5	759	45.010374158155	0
5	837	50.010374158155	0
5	915	55.010374158155	0
5	993	60.010374158155	0
5	1071	65.010374158155	0
5	1149	70.010374158155	0
5	1227	75.010374158155	0
5	1305	80.010374158155	0
5	1383	85.010374158155	0
5	1461	90.010374158155	0
5	1539	95.010374158155	0
5	1617	100.010374158155	0
5	1695	105.010374158155	0
5	1773	110.010374158155	0
5	1851	115.010374158155	0
5	1929	120.010374158155	0
5	2007	125.010374158155	0
5	2085	130.010374158155	0
5	2163	135.010374158155	0
5	2241	140.010374158155	0
5	2319	145.010374158155	0
5	2397	150.010374158155	0
5	2475	155.010374158155	0
5	2553	160.010374158155	0
5	2631	165.010374158155	0
5	2709	170.010374158155	0
5	2787	175.010374158155	0
5	2865	180.010374158155	0
5	2943	185.010374158155	0
5	3021	190.010374158155	0
5	3099	195.010374158155	0
6	0	0	0
6	8	0	0
6	12	0.168218594998	0
6	31	0.364461026154	0
6	119	0.655784025993	0
6	197	5.364461026154	0
6	275	10.364461026154	0
6	353	15.364461026154	0
6	431	20.364461026154	0
6	509	25.364461026154	0
6	534	30.364461026154	0
6	605	31.166710540373	0
6	683	35.364461026154	0
6	761	40.364461026154	0
6	839	45.364461026154	0
6	917	50.364461026154	0
6	995	55.364461026154	0
6	1073	60.364461026154	0
6	1151	65.364461026154	0
6	1229	70.364461026154	0
6	1307	75.364461026154	0
6	1385	80.364461026154	0
6	1463	85.364461026154	0
6	1541	90.364461026154	0
6	1619	95.364461026154	0
6	1697	100.364461026154	0
6	1775	105.364461026154	0
6	1853	110.364461026154	0
6	1931	115.364461026154	0
6	2009	120.364461026154	0
6	2087	125.364461026154	0
6	2165	130.364461026154	0
6	2243	135.364461026154	0
6	2321	140.364461026154	0
6	2399	145.364461026154	0
6	2477	150.364461026154	0
6	2555	155.364461026154	0
6	2633	160.364461026154	0
6	2711	165.364461026154	0
6	2789	170.364461026154	0
6	2867	175.364461026154	0
6	2945	180.364461026154	0
6	3023	185.364461026154	0
6	3101	190.364461026154	0
6	3174	195.364461026154	0
7	12	0.168218594998	0
7	31	0.364461026154	0
7	119	0.655784025993	0
7	197	5.364461026154	0
7	275	10.364461026154	0
7	353	15.364461026154	0
7	431	20.364461026154	0
7	509	25.364461026154	0
7	534	30.364461026154	0
7	605	31.166710540373	0
7	683	35.364461026154	0
7	761	40.364461026154	0
7	839	45.364461026154	0
7	917	50.364461026154	0
7	995	55.364461026154	0
7	1073	60.364461026154	0
7	1151	65.364461026154	0
7	1229	70.364461026154	0
7	1307	75.364461026154	0
7	1385	80.364461026154	0
7	1463	85.364461026154	0
7	1541	90.364461026154	0
7	1619	95.364461026154	0
7	1697	100.364461026154	0
7	1775	105.364461026154	0
7	1853	110.364461026154	0
7	1931	115.364461026154	0
7	2009	120.364461026154	0
7	2087	125.364461026154	0
7	2165	130.364461026154	0
7	2243	135.364461026154	0
7	2321	140.364461026154	0
7	2399	145.364461026154	0
7	2477	150.364461026154	0
7	2555	155.364461026154	0
7	2633	160.364461026154	0
7	2711	165.364461026154	0
7	2789	170.364461026154	0
7	2867	175.364461026154	0
7	2945	180.364461026154	0
7	3023	185.364461026154	0
7	3101	190.364461026154	0
7	3174	195.364461026154	0
8	0	0	1
8	8	0.168218594998	1
8	12	0.364461026154	1
8	31	0.655784025993	1
8	119	5.364461026154	1
8	197	10.364461026154	1
8	275	15.364461026154	1
8	353	20.364461026154	1
8	431	25.364461026154	1
8	509	30.364461026154	1
8	534	31.166710540373	1
8	605	35.364461026154	1
8	683	40.364461026154	1
8	761	45.364461026154	1
8	839	50.364461026154	1
8	917	55.364461026154	1
8	995	60.364461026154	1
8	1073	65.364461026154	1
8	1151	70.364461026154	1
8	1229	75.364461026154	1
8	1307	80.364461026154	1
8	1385	85.364461026154	1
8	1463	90.364461026154	1
8	1541	95.364461026154	1
8	1619	100.364461026154	1
8	1697	105.364461026154	1
8	1775	110.364461026154	1
8	1853	115.364461026154	1
8	1931	120.364461026154	1
8	2009	125.364461026154	1
8	2087	130.364461026154	1
8	2165	135.364461026154	1
8	2243	140.364461026154	1
8	2321	145.364461026154	1
8	2399	150.364461026154	1
8	2477	155.364461026154	1
8	2555	160.364461026154	1
8	2633	165.364461026154	1
8	2711	170.364461026154	1
8	2789	175.364461026154	1
8	2867	180.364461026154	1
8	2945	185.364461026154	1
8	3023	190.364461026154	1
8	3101	195.364461026154	1
9	8	0.168218594998	0
9	12	0.364461026154	0
9	31	0.655784025993	0
9	119	5.364461026154	0
9	197	10.364461026154	0
9	275	15.364461026154	0
9	353	20.364461026154	0
9	431	25.364461026154	0
9	509	30.364461026154	0
9	534	31.166710540373	0
9	605	35.364461026154	0
9	683	40.364461026154	0
9	761	45.364461026154	0
9	839	50.364461026154	0
9	917	55.364461026154	0
9	995	60.364461026154	0
9	1073	65.364461026154	0
9	1151	70.364461026154	0
9	1229	75.364461026154	0
9	1307	80.364461026154	0
9	1385	85.364461026154	0
9	1463	90.364461026154	0
9	1541	95.364461026154	0
9	1619	100.364461026154	0
9	1697	105.364461026154	0
9	1775	110.364461026154	0
9	1853	115.364461026154	0
9	1931	120.364461026154	0
9	2009	125.364461026154	0
9	2087	130.364461026154	0
9	2165	135.364461026154	0
9	2243	140.364461026154	0
9	2321	145.364461026154	0
9	2399	150.364461026154	0
9	2477	155.364461026154	0
9	2555	160.364461026154	0
9	2633	165.364461026154	0
9	2711	170.364461026154	0
9	2789	175.364461026154	0
9	2867	180.364461026154	0
9	2945	185.364461026154	0
9	3023	190.364461026154	0
9	3101	195.364461026154	0
10	0	0	1
11	8	0.168218594998	0
11	12	0.364461026154	0
11	31	0.655784025993	0
11	119	5.364461026154	0
11	197	10.364461026154	0
11	275	15.364461026154	0
11	353	20.364461026154	0
11	431	25.364461026154	0
11	509	30.364461026154	0
11	534	31.166710540373	0
11	605	35.364461026154	0
11	683	40.364461026154	0
11	761	45.364461026154	0
11	839	50.364461026154	0
11	917	55.364461026154	0
11	995	60.364461026154	0
11	1073	65.364461026154	0
11	1151	70.364461026154	0
11	1229	75.364461026154	0
11	1307	80.364461026154	0
11	1385	85.364461026154	0
11	1463	90.364461026154	0
11	1541	95.364461026154	0
11	1619	100.364461026154	0
11	1697	105.364461026154	0
11	1775	110.364461026154	0
11	1853	115.364461026154	0
11	1931	120.364461026154	0
11	2009	125.364461026154	0
11	2087	130.364461026154	0
11	2165	135.364461026154	0
11	2243	140.364461026154	0
11	2321	145.364461026154	0
11	2399	150.364461026154	0
11	2477	155.364461026154	0
11	2555	160.364461026154	0
11	2633	165.364461026154	0
11	2711	170.364461026154	0
11	2789	175.364461026154	0
11	2867	180.364461026154	0
11	2945	185.364461026154	0
11	3023	190.364461026154	0
11	3101	195.364461026154	0
12	0	0	0
12	12	0	0
12	31	0.364461026154	0
12	119	0.655784025993	0
12	197	5.364461026154	0
12	275	10.364461026154	0
12	353	15.364461026154	0
12	431	20.364461026154	0
12	509	25.364461026154	0
12	534	30.364461026154	0
12	605	31.166710540373	0
12	683	35.364461026154	0
12	761	40.364461026154	0
12	839	45.364461026154	0
12	917	50.364461026154	0
12	995	55.364461026154	0
12	1073	60.364461026154	0
12	1151	65.364461026154	0
12	1229	70.364461026154	0
12	1307	75.364461026154	0
12	1385	80.364461026154	0
12	1463	85.364461026154	0
12	1541	90.364461026154	0
12	1619	95.364461026154	0
12	1697	100.364461026154	0
12	1775	105.364461026154	0
12	1853	110.364461026154	0
12	1931	115.364461026154	0
12	2009	120.364461026154	0
12	2087	125.364461026154	0
12	2165	130.364461026154	0
12	2243	135.364461026154	0
12	2321	140.364461026154	0
12	2399	145.364461026154	0
12	2477	150.364461026154	0
12	2555	155.364461026154	0
12	2633	160.364461026154	0
12	2711	165.364461026154	0
12	2789	170.364461026154	0
12	2867	175.364461026154	0
12	2945	180.364461026154	0
12	3023	185.364461026154	0
12	3101	190.364461026154	0
12	3174	195.364461026154	0
13	31	0.364461026154	0
13	119	0.655784025993	0
13	197	5.364461026154	0
13	275	10.364461026154	0
13	353	15.364461026154	0
13	431	20.364461026154	0
13	509	25.364461026154	0
13	534	30.364461026154	0
13	605	31.166710540373	0
13	683	35.364461026154	0
13	761	40.364461026154	0
13	839	45.364461026154	0
13	917	50.364461026154	0
13	995	55.364461026154	0
13	1073	60.364461026154	0
13	1151	65.364461026154	0
13	1229	70.364461026154	0
13	1307	75.364461026154	0
13	1385	80.364461026154	0
13	1463	85.364461026154	0
13	1541	90.364461026154	0
13	1619	95.364461026154	0
13	1697	100.364461026154	0
13	1775	105.364461026154	0
13	1853	110.364461026154	0
13	1931	115.364461026154	0
13	2009	120.364461026154	0
13	2087	125.364461026154	0
13	2165	130.364461026154	0
13	2243	135.364461026154	0
13	2321	140.364461026154	0
13	2399	145.364461026154	0
13	2477	150.364461026154	0
13	2555	155.364461026154	0
13	2633	160.364461026154	0
13	2711	165.364461026154	0
13	2789	170.364461026154	0
13	2867	175.364461026154	0
13	2945	180.364461026154	0
13	3023	185.364461026154	0
13	3101	190.364461026154	0
13	3174	195.364461026154	0
14	0	0	1
14	12	0.364461026154	1
14	31	0.655784025993	1
14	119	5.364461026154	1
14	197	10.364461026154	1
14	275	15.364461026154	1
14	353	20.364461026154	1
14	431	25.364461026154	1
14	509	30.364461026154	1
14	534	31.166710540373	1
14	605	35.364461026154	1
14	683	40.364461026154	1
14	761	45.364461026154	1
14	839	50.364461026154	1
14	917	55.364461026154	1
14	995	60.364461026154	1
14	1073	65.364461026154	1
14	1151	70.364461026154	1
14	1229	75.364461026154	1
14	1307	80.364461026154	1
14	1385	85.364461026154	1
14	1463	90.364461026154	1
14	1541	95.364461026154	1
14	1619	100.364461026154	1
14	1697	105.364461026154	1
14	1775	110.364461026154	1
14	1853	115.364461026154	1
14	1931	120.364461026154	1
14	2009	125.364461026154	1
14	2087	130.364461026154	1
14	2165	135.364461026154	1
14	2243	140.364461026154	1
14	2321	145.364461026154	1
14	2399	150.364461026154	1
14	2477	155.364461026154	1
14	2555	160.364461026154	1
14	2633	165.364461026154	1
14	2711	170.364461026154	1
14	2789	175.364461026154	1
14	2867	180.364461026154	1
14	2945	185.364461026154	1
14	3023	190.364461026154	1
14	3101	195.364461026154	1
15	12	0.364461026154	0
15	31	0.655784025993	0
15	119	5.364461026154	0
15	197	10.364461026154	0
15	275	15.364461026154	0
15	353	20.364461026154	0
15	431	25.364461026154	0
15	509	30.364461026154	0
15	534	31.166710540373	0
15	605	35.364461026154	0
15	683	40.364461026154	0
15	761	45.364461026154	0
15	839	50.364461026154	0
15	917	55.364461026154	0
15	995	60.364461026154	0
15	1073	65.364461026154	0
15	1151	70.364461026154	0
15	1229	75.364461026154	0
15	1307	80.364461026154	0
15	1385	85.364461026154	0
15	1463	90.364461026154	0
15	1541	95.364461026154	0
15	1619	100.364461026154	0
15	1697	105.364461026154	0
15	1775	110.364461026154	0
15	1853	115.364461026154	0
15	1931	120.364461026154	0
15	2009	125.364461026154	0
15	2087	130.364461026154	0
15	2165	135.364461026154	0
15	2243	140.364461026154	0
15	2321	145.364461026154	0
15	2399	150.364461026154	0
15	2477	155.364461026154	0
15	2555	160.364461026154	0
15	2633	165.364461026154	0
15	2711	170.364461026154	0
15	2789	175.364461026154	0
15	2867	180.364461026154	0
15	2945	185.364461026154	0
15	3023	190.364461026154	0
15	3101	195.364461026154	0
16	0	0	1
17	12	0.364461026154	0
17	31	0.655784025993	0
17	119	5.364461026154	0
17	197	10.364461026154	0
17	275	15.364461026154	0
17	353	20.364461026154	0
17	431	25.364461026154	0
17	509	30.364461026154	0
17	534	31.166710540373	0
17	605	35.364461026154	0
17	683	40.364461026154	0
17	761	45.364461026154	0
17	839	50.364461026154	0
17	917	55.364461026154	0
17	995	60.364461026154	0
17	1073	65.364461026154	0
17	1151	70.364461026154	0
17	1229	75.364461026154	0
17	1307	80.364461026154	0
17	1385	85.364461026154	0
17	1463	90.364461026154	0
17	1541	95.364461026154	0
17	1619	100.364461026154	0
17	1697	105.364461026154	0
17	1775	110.364461026154	0
17	1853	115.364461026154	0
17	1931	120.364461026154	0
17	2009	125.364461026154	0
17	2087	130.364461026154	0
17	2165	135.364461026154	0
17	2243	140.364461026154	0
17	2321	145.364461026154	0
17	2399	150.364461026154	0
17	2477	155.364461026154	0
17	2555	160.364461026154	0
17	2633	165.364461026154	0
17	2711	170.364461026154	0
17	2789	175.364461026154	0
17	2867	180.364461026154	0
17	2945	185.364461026154	0
17	3023	190.364461026154	0
17	3101	195.364461026154	0
18	0	0	0
18	23	0	0
18	27	0.501874595415	0
18	40	0.552884495839	0
18	128	0.790407887514	0
18	206	5.501874595415	0
18	284	10.501874595415	0
18	362	15.501874595415	0
18	440	20.501874595415	0
18	518	25.501874595415	0
18	538	30.501874595415	0
18	614	31.22628354691	0
18	692	35.501874595415	0
18	770	40.501874595415	0
18	848	45.501874595415	0
18	926	50.501874595415	0
18	1004	55.501874595415	0
18	1082	60.501874595415	0
18	1160	65.501874595415	0
18	1238	70.501874595415	0
18	1316	75.501874595415	0
18	1394	80.501874595415	0
18	1472	85.501874595415	0
18	1550	90.501874595415	0