version 3
run EDVRPComparisonEDVRP-2-20250705-23:45:57-97481
attr configname EDVRPComparisonEDVRP
attr datetime 20250705-23:45:57
attr datetimef 20250705-234557
attr experiment EDVRPComparisonEDVRP
attr inifile omnetpp.ini
attr iterationvars ""
attr iterationvarsd ""
attr iterationvarsf ""
attr measurement ""
attr network edvrp.simulations.EDVRPTestNetwork
attr processid 97481
attr repetition 2
attr replication #2
attr resultdir results
attr runnumber 2
attr seedset 2
config description "EDVRP behavior on comparison topology"
config network edvrp.simulations.EDVRPTestNetwork
config sim-time-limit 200s
config repeat 5
config cmdenv-express-mode false
config cmdenv-autoflush true
config **.router*.**.result-recording-modes +vector,+histogram,+stats
config network edvrp.simulations.EDVRPTestNetwork
config sim-time-limit 300s
config seed-set 2
config num-rngs 3
config rng-class cMersenneTwister
config output-scalar-file results/EDVRPComparisonEDVRP-2.sca
config output-vector-file results/EDVRPComparisonEDVRP-2.vec
config eventlog-file results/EDVRPComparisonEDVRP-2.elog
config **.scalar-recording true
config **.vector-recording true
config **.router*.convergenceTimeSignal.result-recording-modes +histogram,+stats
config **.router*.routingTableSizeSignal.result-recording-modes +vector,+stats
config **.router*.messageCountSignal.result-recording-modes +count,+sum
config debug-on-errors true
config print-undisposed true

vector 0 EDVRPTestNetwork.router1.port$o[0].channel busy:vector ETV
attr interpolationmode sample-hold
attr recordingmode vector
attr source channelBusy
vector 1 EDVRPTestNetwork.router1.port$o[0].channel utilization:vector ETV
attr recordingmode vector
attr source timeavg(channelBusy)
vector 2 EDVRPTestNetwork.router1.port$o[0].channel packets:vector ETV
attr interpolationmode none
attr recordingmode vector
attr source constant1(messageSent)
vector 3 EDVRPTestNetwork.router1.port$o[0].channel packetBytes:vector ETV
attr interpolationmode none
attr recordingmode vector
attr source packetBytes(messageSent)
attr unit B
vector 4 EDVRPTestNetwork.router1.port$o[0].channel packetsDiscarded:vector ETV
attr interpolationmode none
attr recordingmode vector
attr source constant1(messageDiscarded)
vector 5 EDVRPTestNetwork.router1.port$o[0].channel throughput:vector ETV
attr recordingmode vector
attr source sumPerDuration(packetBits(messageSent))
attr unit bps
vector 6 EDVRPTestNetwork.router2.port$o[0].channel busy:vector ETV
attr interpolationmode sample-hold
attr recordingmode vector
attr source channelBusy
vector 7 EDVRPTestNetwork.router2.port$o[0].channel utilization:vector ETV
attr recordingmode vector
attr source timeavg(channelBusy)
vector 8 EDVRPTestNetwork.router2.port$o[0].channel packets:vector ETV
attr interpolationmode none
attr recordingmode vector
attr source constant1(messageSent)
vector 9 EDVRPTestNetwork.router2.port$o[0].channel packetBytes:vector ETV
attr interpolationmode none
attr recordingmode vector
attr source packetBytes(messageSent)
attr unit B
vector 10 EDVRPTestNetwork.router2.port$o[0].channel packetsDiscarded:vector ETV
attr interpolationmode none
attr recordingmode vector
attr source constant1(messageDiscarded)
vector 11 EDVRPTestNetwork.router2.port$o[0].channel throughput:vector ETV
attr recordingmode vector
attr source sumPerDuration(packetBits(messageSent))
attr unit bps
vector 12 EDVRPTestNetwork.router2.port$o[1].channel busy:vector ETV
attr interpolationmode sample-hold
attr recordingmode vector
attr source channelBusy
vector 13 EDVRPTestNetwork.router2.port$o[1].channel utilization:vector ETV
attr recordingmode vector
attr source timeavg(channelBusy)
vector 14 EDVRPTestNetwork.router2.port$o[1].channel packets:vector ETV
attr interpolationmode none
attr recordingmode vector
attr source constant1(messageSent)
vector 15 EDVRPTestNetwork.router2.port$o[1].channel packetBytes:vector ETV
attr interpolationmode none
attr recordingmode vector
attr source packetBytes(messageSent)
attr unit B
vector 16 EDVRPTestNetwork.router2.port$o[1].channel packetsDiscarded:vector ETV
attr interpolationmode none
attr recordingmode vector
attr source constant1(messageDiscarded)
vector 17 EDVRPTestNetwork.router2.port$o[1].channel throughput:vector ETV
attr recordingmode vector
attr source sumPerDuration(packetBits(messageSent))
attr unit bps
vector 18 EDVRPTestNetwork.router3.port$o[0].channel busy:vector ETV
attr interpolationmode sample-hold
attr recordingmode vector
attr source channelBusy
vector 19 EDVRPTestNetwork.router3.port$o[0].channel utilization:vector ETV
attr recordingmode vector
attr source timeavg(channelBusy)
vector 20 EDVRPTestNetwork.router3.port$o[0].channel packets:vector ETV
attr interpolationmode none
attr recordingmode vector
attr source constant1(messageSent)
vector 21 EDVRPTestNetwork.router3.port$o[0].channel packetBytes:vector ETV
attr interpolationmode none
attr recordingmode vector
attr source packetBytes(messageSent)
attr unit B
vector 22 EDVRPTestNetwork.router3.port$o[0].channel packetsDiscarded:vector ETV
attr interpolationmode none
attr recordingmode vector
attr source constant1(messageDiscarded)
vector 23 EDVRPTestNetwork.router3.port$o[0].channel throughput:vector ETV
attr recordingmode vector
attr source sumPerDuration(packetBits(messageSent))
attr unit bps
vector 24 EDVRPTestNetwork.router3.port$o[1].channel busy:vector ETV
attr interpolationmode sample-hold
attr recordingmode vector
attr source channelBusy
vector 25 EDVRPTestNetwork.router3.port$o[1].channel utilization:vector ETV
attr recordingmode vector
attr source timeavg(channelBusy)
vector 26 EDVRPTestNetwork.router3.port$o[1].channel packets:vector ETV
attr interpolationmode none
attr recordingmode vector
attr source constant1(messageSent)
vector 27 EDVRPTestNetwork.router3.port$o[1].channel packetBytes:vector ETV
attr interpolationmode none
attr recordingmode vector
attr source packetBytes(messageSent)
attr unit B
vector 28 EDVRPTestNetwork.router3.port$o[1].channel packetsDiscarded:vector ETV
attr interpolationmode none
attr recordingmode vector
attr source constant1(messageDiscarded)
vector 29 EDVRPTestNetwork.router3.port$o[1].channel throughput:vector ETV
attr recordingmode vector
attr source sumPerDuration(packetBits(messageSent))
attr unit bps
vector 30 EDVRPTestNetwork.router4.port$o[0].channel busy:vector ETV
attr interpolationmode sample-hold
attr recordingmode vector
attr source channelBusy
vector 31 EDVRPTestNetwork.router4.port$o[0].channel utilization:vector ETV
attr recordingmode vector
attr source timeavg(channelBusy)
vector 32 EDVRPTestNetwork.router4.port$o[0].channel packets:vector ETV
attr interpolationmode none
attr recordingmode vector
attr source constant1(messageSent)
vector 33 EDVRPTestNetwork.router4.port$o[0].channel packetBytes:vector ETV
attr interpolationmode none
attr recordingmode vector
attr source packetBytes(messageSent)
attr unit B
vector 34 EDVRPTestNetwork.router4.port$o[0].channel packetsDiscarded:vector ETV
attr interpolationmode none
attr recordingmode vector
attr source constant1(messageDiscarded)
vector 35 EDVRPTestNetwork.router4.port$o[0].channel throughput:vector ETV
attr recordingmode vector
attr source sumPerDuration(packetBits(messageSent))
attr unit bps
vector 36 EDVRPTestNetwork.router2.port$o[2].channel busy:vector ETV
attr interpolationmode sample-hold
attr recordingmode vector
attr source channelBusy
vector 37 EDVRPTestNetwork.router2.port$o[2].channel utilization:vector ETV
attr recordingmode vector
attr source timeavg(channelBusy)
vector 38 EDVRPTestNetwork.router2.port$o[2].channel packets:vector ETV
attr interpolationmode none
attr recordingmode vector
attr source constant1(messageSent)
vector 39 EDVRPTestNetwork.router2.port$o[2].channel packetBytes:vector ETV
attr interpolationmode none
attr recordingmode vector
attr source packetBytes(messageSent)
attr unit B
vector 40 EDVRPTestNetwork.router2.port$o[2].channel packetsDiscarded:vector ETV
attr interpolationmode none
attr recordingmode vector
attr source constant1(messageDiscarded)
vector 41 EDVRPTestNetwork.router2.port$o[2].channel throughput:vector ETV
attr recordingmode vector
attr source sumPerDuration(packetBits(messageSent))
attr unit bps
vector 42 EDVRPTestNetwork.router5.port$o[0].channel busy:vector ETV
attr interpolationmode sample-hold
attr recordingmode vector
attr source channelBusy
vector 43 EDVRPTestNetwork.router5.port$o[0].channel utilization:vector ETV
attr recordingmode vector
attr source timeavg(channelBusy)
vector 44 EDVRPTestNetwork.router5.port$o[0].channel packets:vector ETV
attr interpolationmode none
attr recordingmode vector
attr source constant1(messageSent)
vector 45 EDVRPTestNetwork.router5.port$o[0].channel packetBytes:vector ETV
attr interpolationmode none
attr recordingmode vector
attr source packetBytes(messageSent)
attr unit B
vector 46 EDVRPTestNetwork.router5.port$o[0].channel packetsDiscarded:vector ETV
attr interpolationmode none
attr recordingmode vector
attr source constant1(messageDiscarded)
vector 47 EDVRPTestNetwork.router5.port$o[0].channel throughput:vector ETV
attr recordingmode vector
attr source sumPerDuration(packetBits(messageSent))
attr unit bps
vector 48 EDVRPTestNetwork.router3.port$o[2].channel busy:vector ETV
attr interpolationmode sample-hold
attr recordingmode vector
attr source channelBusy
vector 49 EDVRPTestNetwork.router3.port$o[2].channel utilization:vector ETV
attr recordingmode vector
attr source timeavg(channelBusy)
vector 50 EDVRPTestNetwork.router3.port$o[2].channel packets:vector ETV
attr interpolationmode none
attr recordingmode vector
attr source constant1(messageSent)
vector 51 EDVRPTestNetwork.router3.port$o[2].channel packetBytes:vector ETV
attr interpolationmode none
attr recordingmode vector
attr source packetBytes(messageSent)
attr unit B
vector 52 EDVRPTestNetwork.router3.port$o[2].channel packetsDiscarded:vector ETV
attr interpolationmode none
attr recordingmode vector
attr source constant1(messageDiscarded)
vector 53 EDVRPTestNetwork.router3.port$o[2].channel throughput:vector ETV
attr recordingmode vector
attr source sumPerDuration(packetBits(messageSent))
attr unit bps
vector 54 EDVRPTestNetwork.router6.port$o[0].channel busy:vector ETV
attr interpolationmode sample-hold
attr recordingmode vector
attr source channelBusy
vector 55 EDVRPTestNetwork.router6.port$o[0].channel utilization:vector ETV
attr recordingmode vector
attr source timeavg(channelBusy)
vector 56 EDVRPTestNetwork.router6.port$o[0].channel packets:vector ETV
attr interpolationmode none
attr recordingmode vector
attr source constant1(messageSent)
vector 57 EDVRPTestNetwork.router6.port$o[0].channel packetBytes:vector ETV
attr interpolationmode none
attr recordingmode vector
attr source packetBytes(messageSent)
attr unit B
vector 58 EDVRPTestNetwork.router6.port$o[0].channel packetsDiscarded:vector ETV
attr interpolationmode none
attr recordingmode vector
attr source constant1(messageDiscarded)
vector 59 EDVRPTestNetwork.router6.port$o[0].channel throughput:vector ETV
attr recordingmode vector
attr source sumPerDuration(packetBits(messageSent))
attr unit bps
vector 60 EDVRPTestNetwork.router5.port$o[1].channel busy:vector ETV
attr interpolationmode sample-hold
attr recordingmode vector
attr source channelBusy
vector 61 EDVRPTestNetwork.router5.port$o[1].channel utilization:vector ETV
attr recordingmode vector
attr source timeavg(channelBusy)
vector 62 EDVRPTestNetwork.router5.port$o[1].channel packets:vector ETV
attr interpolationmode none
attr recordingmode vector
attr source constant1(messageSent)
vector 63 EDVRPTestNetwork.router5.port$o[1].channel packetBytes:vector ETV
attr interpolationmode none
attr recordingmode vector
attr source packetBytes(messageSent)
attr unit B
vector 64 EDVRPTestNetwork.router5.port$o[1].channel packetsDiscarded:vector ETV
attr interpolationmode none
attr recordingmode vector
attr source constant1(messageDiscarded)
vector 65 EDVRPTestNetwork.router5.port$o[1].channel throughput:vector ETV
attr recordingmode vector
attr source sumPerDuration(packetBits(messageSent))
attr unit bps
vector 66 EDVRPTestNetwork.router6.port$o[1].channel busy:vector ETV
attr interpolationmode sample-hold
attr recordingmode vector
attr source channelBusy
vector 67 EDVRPTestNetwork.router6.port$o[1].channel utilization:vector ETV
attr recordingmode vector
attr source timeavg(channelBusy)
vector 68 EDVRPTestNetwork.router6.port$o[1].channel packets:vector ETV
attr interpolationmode none
attr recordingmode vector
attr source constant1(messageSent)
vector 69 EDVRPTestNetwork.router6.port$o[1].channel packetBytes:vector ETV
attr interpolationmode none
attr recordingmode vector
attr source packetBytes(messageSent)
attr unit B
vector 70 EDVRPTestNetwork.router6.port$o[1].channel packetsDiscarded:vector ETV
attr interpolationmode none
attr recordingmode vector
attr source constant1(messageDiscarded)
vector 71 EDVRPTestNetwork.router6.port$o[1].channel throughput:vector ETV
attr recordingmode vector
attr source sumPerDuration(packetBits(messageSent))
attr unit bps
0	0	0	0
0	27	0	0
0	56	0.892860146705	0
0	135	1.260634663211	0
0	213	5.892860146705	0
0	291	10.892860146705	0
0	369	15.892860146705	0
0	447	20.892860146705	0
0	525	25.892860146705	0
0	559	30.892860146705	0
0	576	31.394352842122	0
0	639	32.358142036386	0
0	717	35.892860146705	0
0	795	40.892860146705	0
0	873	45.892860146705	0
0	951	50.892860146705	0
0	1029	55.892860146705	0
0	1107	60.892860146705	0
0	1185	65.892860146705	0
0	1263	70.892860146705	0
0	1341	75.892860146705	0
0	1419	80.892860146705	0
0	1497	85.892860146705	0
0	1575	90.892860146705	0
0	1653	95.892860146705	0
0	1731	100.892860146705	0
0	1809	105.892860146705	0
0	1887	110.892860146705	0
0	1965	115.892860146705	0
0	2043	120.892860146705	0
0	2121	125.892860146705	0
0	2199	130.892860146705	0
0	2277	135.892860146705	0
0	2355	140.892860146705	0
0	2433	145.892860146705	0
0	2511	150.892860146705	0
0	2589	155.892860146705	0
0	2667	160.892860146705	0
0	2745	165.892860146705	0
0	2823	170.892860146705	0
0	2901	175.892860146705	0
0	2979	180.892860146705	0
0	3057	185.892860146705	0
0	3135	190.892860146705	0
0	3201	195.892860146705	0
1	56	0.892860146705	0
1	135	1.260634663211	0
1	213	5.892860146705	0
1	291	10.892860146705	0
1	369	15.892860146705	0
1	447	20.892860146705	0
1	525	25.892860146705	0
1	559	30.892860146705	0
1	576	31.394352842122	0
1	639	32.358142036386	0
1	717	35.892860146705	0
1	795	40.892860146705	0
1	873	45.892860146705	0
1	951	50.892860146705	0
1	1029	55.892860146705	0
1	1107	60.892860146705	0
1	1185	65.892860146705	0
1	1263	70.892860146705	0
1	1341	75.892860146705	0
1	1419	80.892860146705	0
1	1497	85.892860146705	0
1	1575	90.892860146705	0
1	1653	95.892860146705	0
1	1731	100.892860146705	0
1	1809	105.892860146705	0
1	1887	110.892860146705	0
1	1965	115.892860146705	0
1	2043	120.892860146705	0
1	2121	125.892860146705	0
1	2199	130.892860146705	0
1	2277	135.892860146705	0
1	2355	140.892860146705	0
1	2433	145.892860146705	0
1	2511	150.892860146705	0
1	2589	155.892860146705	0
1	2667	160.892860146705	0
1	2745	165.892860146705	0
1	2823	170.892860146705	0
1	2901	175.892860146705	0
1	2979	180.892860146705	0
1	3057	185.892860146705	0
1	3135	190.892860146705	0
1	3201	195.892860146705	0
2	0	0	1
2	27	0.892860146705	1
2	56	1.260634663211	1
2	135	5.892860146705	1
2	213	10.892860146705	1
2	291	15.892860146705	1
2	369	20.892860146705	1
2	447	25.892860146705	1
2	525	30.892860146705	1
2	559	31.394352842122	1
2	576	32.358142036386	1
2	639	35.892860146705	1
2	717	40.892860146705	1
2	795	45.892860146705	1
2	873	50.892860146705	1
2	951	55.892860146705	1
2	1029	60.892860146705	1
2	1107	65.892860146705	1
2	1185	70.892860146705	1
2	1263	75.892860146705	1
2	1341	80.892860146705	1
2	1419	85.892860146705	1
2	1497	90.892860146705	1
2	1575	95.892860146705	1
2	1653	100.892860146705	1
2	1731	105.892860146705	1
2	1809	110.892860146705	1
2	1887	115.892860146705	1
2	1965	120.892860146705	1
2	2043	125.892860146705	1
2	2121	130.892860146705	1
2	2199	135.892860146705	1
2	2277	140.892860146705	1
2	2355	145.892860146705	1
2	2433	150.892860146705	1
2	2511	155.892860146705	1
2	2589	160.892860146705	1
2	2667	165.892860146705	1
2	2745	170.892860146705	1
2	2823	175.892860146705	1
2	2901	180.892860146705	1
2	2979	185.892860146705	1
2	3057	190.892860146705	1
2	3135	195.892860146705	1
3	27	0.892860146705	0
3	56	1.260634663211	0
3	135	5.892860146705	0
3	213	10.892860146705	0
3	291	15.892860146705	0
3	369	20.892860146705	0
3	447	25.892860146705	0
3	525	30.892860146705	0
3	559	31.394352842122	0
3	576	32.358142036386	0
3	639	35.892860146705	0
3	717	40.892860146705	0
3	795	45.892860146705	0
3	873	50.892860146705	0
3	951	55.892860146705	0
3	1029	60.892860146705	0
3	1107	65.892860146705	0
3	1185	70.892860146705	0
3	1263	75.892860146705	0
3	1341	80.892860146705	0
3	1419	85.892860146705	0
3	1497	90.892860146705	0
3	1575	95.892860146705	0
3	1653	100.892860146705	0
3	1731	105.892860146705	0
3	1809	110.892860146705	0
3	1887	115.892860146705	0
3	1965	120.892860146705	0
3	2043	125.892860146705	0
3	2121	130.892860146705	0
3	2199	135.892860146705	0
3	2277	140.892860146705	0
3	2355	145.892860146705	0
3	2433	150.892860146705	0
3	2511	155.892860146705	0
3	2589	160.892860146705	0
3	2667	165.892860146705	0
3	2745	170.892860146705	0
3	2823	175.892860146705	0
3	2901	180.892860146705	0
3	2979	185.892860146705	0
3	3057	190.892860146705	0
3	3135	195.892860146705	0
4	0	0	1
5	27	0.892860146705	0
5	56	1.260634663211	0
5	135	5.892860146705	0
5	213	10.892860146705	0
5	291	15.892860146705	0
5	369	20.892860146705	0
5	447	25.892860146705	0
5	525	30.892860146705	0
5	559	31.394352842122	0
5	576	32.358142036386	0
5	639	35.892860146705	0
5	717	40.892860146705	0
5	795	45.892860146705	0
5	873	50.892860146705	0
5	951	55.892860146705	0
5	1029	60.892860146705	0
5	1107	65.892860146705	0
5	1185	70.892860146705	0
5	1263	75.892860146705	0
5	1341	80.892860146705	0
5	1419	85.892860146705	0
5	1497	90.892860146705	0
5	1575	95.892860146705	0
5	1653	100.892860146705	0
5	1731	105.892860146705	0
5	1809	110.892860146705	0
5	1887	115.892860146705	0
5	1965	120.892860146705	0
5	2043	125.892860146705	0
5	2121	130.892860146705	0
5	2199	135.892860146705	0
5	2277	140.892860146705	0
5	2355	145.892860146705	0
5	2433	150.892860146705	0
5	2511	155.892860146705	0
5	2589	160.892860146705	0
5	2667	165.892860146705	0
5	2745	170.892860146705	0
5	2823	175.892860146705	0
5	2901	180.892860146705	0
5	2979	185.892860146705	0
5	3057	190.892860146705	0
5	3135	195.892860146705	0
6	0	0	0
6	29	0	0
6	52	0.947476076195	0
6	137	1.169618571661	0
6	215	5.947476076195	0
6	293	10.947476076195	0
6	371	15.947476076195	0
6	449	20.947476076195	0
6	527	25.947476076195	0
6	548	30.947476076195	0
6	578	31.255990231223	0
6	641	32.389731491078	0
6	719	35.947476076195	0
6	797	40.947476076195	0
6	875	45.947476076195	0
6	953	50.947476076195	0
6	1031	55.947476076195	0
6	1109	60.947476076195	0
6	1187	65.947476076195	0
6	1265	70.947476076195	0
6	1343	75.947476076195	0
6	1421	80.947476076195	0
6	1499	85.947476076195	0
6	1577	90.947476076195	0
6	1655	95.947476076195	0
6	1733	100.947476076195	0
6	1811	105.947476076195	0
6	1889	110.947476076195	0
6	1967	115.947476076195	0
6	2045	120.947476076195	0
6	2123	125.947476076195	0
6	2201	130.947476076195	0
6	2279	135.947476076195	0
6	2357	140.947476076195	0
6	2435	145.947476076195	0
6	2513	150.947476076195	0
6	2591	155.947476076195	0
6	2669	160.947476076195	0
6	2747	165.947476076195	0
6	2825	170.947476076195	0
6	2903	175.947476076195	0
6	2981	180.947476076195	0
6	3059	185.947476076195	0
6	3137	190.947476076195	0
6	3201	195.947476076195	0
7	52	0.947476076195	0
7	137	1.169618571661	0
7	215	5.947476076195	0
7	293	10.947476076195	0
7	371	15.947476076195	0
7	449	20.947476076195	0
7	527	25.947476076195	0
7	548	30.947476076195	0
7	578	31.255990231223	0
7	641	32.389731491078	0
7	719	35.947476076195	0
7	797	40.947476076195	0
7	875	45.947476076195	0
7	953	50.947476076195	0
7	1031	55.947476076195	0
7	1109	60.947476076195	0
7	1187	65.947476076195	0
7	1265	70.947476076195	0
7	1343	75.947476076195	0
7	1421	80.947476076195	0
7	1499	85.947476076195	0
7	1577	90.947476076195	0
7	1655	95.947476076195	0
7	1733	100.947476076195	0
7	1811	105.947476076195	0
7	1889	110.947476076195	0
7	1967	115.947476076195	0
7	2045	120.947476076195	0
7	2123	125.947476076195	0
7	2201	130.947476076195	0
7	2279	135.947476076195	0
7	2357	140.947476076195	0
7	2435	145.947476076195	0
7	2513	150.947476076195	0
7	2591	155.947476076195	0
7	2669	160.947476076195	0
7	2747	165.947476076195	0
7	2825	170.947476076195	0
7	2903	175.947476076195	0
7	2981	180.947476076195	0
7	3059	185.947476076195	0
7	3137	190.947476076195	0
7	3201	195.947476076195	0
8	0	0	1
8	29	0.947476076195	1
8	52	1.169618571661	1
8	137	5.947476076195	1
8	215	10.947476076195	1
8	293	15.947476076195	1
8	371	20.947476076195	1
8	449	25.947476076195	1
8	527	30.947476076195	1
8	548	31.255990231223	1
8	578	32.389731491078	1
8	641	35.947476076195	1
8	719	40.947476076195	1
8	797	45.947476076195	1
8	875	50.947476076195	1
8	953	55.947476076195	1
8	1031	60.947476076195	1
8	1109	65.947476076195	1
8	1187	70.947476076195	1
8	1265	75.947476076195	1
8	1343	80.947476076195	1
8	1421	85.947476076195	1
8	1499	90.947476076195	1
8	1577	95.947476076195	1
8	1655	100.947476076195	1
8	1733	105.947476076195	1
8	1811	110.947476076195	1
8	1889	115.947476076195	1
8	1967	120.947476076195	1
8	2045	125.947476076195	1
8	2123	130.947476076195	1
8	2201	135.947476076195	1
8	2279	140.947476076195	1
8	2357	145.947476076195	1
8	2435	150.947476076195	1
8	2513	155.947476076195	1
8	2591	160.947476076195	1
8	2669	165.947476076195	1
8	2747	170.947476076195	1
8	2825	175.947476076195	1
8	2903	180.947476076195	1
8	2981	185.947476076195	1
8	3059	190.947476076195	1
8	3137	195.947476076195	1
9	29	0.947476076195	0
9	52	1.169618571661	0
9	137	5.947476076195	0
9	215	10.947476076195	0
9	293	15.947476076195	0
9	371	20.947476076195	0
9	449	25.947476076195	0
9	527	30.947476076195	0
9	548	31.255990231223	0
9	578	32.389731491078	0
9	641	35.947476076195	0
9	719	40.947476076195	0
9	797	45.947476076195	0
9	875	50.947476076195	0
9	953	55.947476076195	0
9	1031	60.947476076195	0
9	1109	65.947476076195	0
9	1187	70.947476076195	0
9	1265	75.947476076195	0
9	1343	80.947476076195	0
9	1421	85.947476076195	0
9	1499	90.947476076195	0
9	1577	95.947476076195	0
9	1655	100.947476076195	0
9	1733	105.947476076195	0
9	1811	110.947476076195	0
9	1889	115.947476076195	0
9	1967	120.947476076195	0
9	2045	125.947476076195	0
9	2123	130.947476076195	0
9	2201	135.947476076195	0
9	2279	140.947476076195	0
9	2357	145.947476076195	0
9	2435	150.947476076195	0
9	2513	155.947476076195	0
9	2591	160.947476076195	0
9	2669	165.947476076195	0
9	2747	170.947476076195	0
9	2825	175.947476076195	0
9	2903	180.947476076195	0
9	2981	185.947476076195	0
9	3059	190.947476076195	0
9	3137	195.947476076195	0
10	0	0	1
11	29	0.947476076195	0
11	52	1.169618571661	0
11	137	5.947476076195	0
11	215	10.947476076195	0
11	293	15.947476076195	0
11	371	20.947476076195	0
11	449	25.947476076195	0
11	527	30.947476076195	0
11	548	31.255990231223	0
11	578	32.389731491078	0
11	641	35.947476076195	0
11	719	40.947476076195	0
11	797	45.947476076195	0
11	875	50.947476076195	0
11	953	55.947476076195	0
11	1031	60.947476076195	0
11	1109	65.947476076195	0
11	1187	70.947476076195	0
11	1265	75.947476076195	0
11	1343	80.947476076195	0
11	1421	85.947476076195	0
11	1499	90.947476076195	0
11	1577	95.947476076195	0
11	1655	100.947476076195	0
11	1733	105.947476076195	0
11	1811	110.947476076195	0
11	1889	115.947476076195	0
11	1967	120.947476076195	0
11	2045	125.947476076195	0
11	2123	130.947476076195	0
11	2201	135.947476076195	0
11	2279	140.947476076195	0
11	2357	145.947476076195	0
11	2435	150.947476076195	0
11	2513	155.947476076195	0
11	2591	160.947476076195	0
11	2669	165.947476076195	0
11	2747	170.947476076195	0
11	2825	175.947476076195	0
11	2903	180.947476076195	0
11	2981	185.947476076195	0
11	3059	190.947476076195	0
11	3137	195.947476076195	0
12	0	0	0
12	19	0	0
12	29	0.671000632153	0
12	52	0.947476076195	0
12	137	1.169618571661	0
12	215	5.947476076195	0
12	293	10.947476076195	0
12	371	15.947476076195	0
12	449	20.947476076195	0
12	527	25.947476076195	0
12	548	30.947476076195	0
12	578	31.255990231223	0
12	641	32.389731491078	0
12	719	35.947476076195	0
12	797	40.947476076195	0
12	875	45.947476076195	0
12	953	50.947476076195	0
12	1031	55.947476076195	0
12	1109	60.947476076195	0
12	1187	65.947476076195	0
12	1265	70.947476076195	0
12	1343	75.947476076195	0
12	1421	80.947476076195	0
12	1499	85.947476076195	0
12	1577	90.947476076195	0
12	1655	95.947476076195	0
12	1733	100.947476076195	0
12	1811	105.947476076195	0
12	1889	110.947476076195	0
12	1967	115.947476076195	0
12	2045	120.947476076195	0
12	2123	125.947476076195	0
12	2201	130.947476076195	0
12	2279	135.947476076195	0
12	2357	140.947476076195	0
12	2435	145.947476076195	0
12	2513	150.947476076195	0
12	2591	155.947476076195	0
12	2669	160.947476076195	0
12	2747	165.947476076195	0
12	2825	170.947476076195	0
12	2903	175.947476076195	0
12	2981	180.947476076195	0
12	3059	185.947476076195	0
12	3137	190.947476076195	0
12	3201	195.947476076195	0
13	29	0.671000632153	0
13	52	0.947476076195	0
13	137	1.169618571661	0
13	215	5.947476076195	0
13	293	10.947476076195	0
13	371	15.947476076195	0
13	449	20.947476076195	0
13	527	25.947476076195	0
13	548	30.947476076195	0
13	578	31.255990231223	0
13	641	32.389731491078	0
13	719	35.947476076195	0
13	797	40.947476076195	0
13	875	45.947476076195	0
13	953	50.947476076195	0
13	1031	55.947476076195	0
13	1109	60.947476076195	0
13	1187	65.947476076195	0
13	1265	70.947476076195	0
13	1343	75.947476076195	0
13	1421	80.947476076195	0
13	1499	85.947476076195	0
13	1577	90.947476076195	0
13	1655	95.947476076195	0
13	1733	100.947476076195	0
13	1811	105.947476076195	0
13	1889	110.947476076195	0
13	1967	115.947476076195	0
13	2045	120.947476076195	0
13	2123	125.947476076195	0
13	2201	130.947476076195	0
13	2279	135.947476076195	0
13	2357	140.947476076195	0
13	2435	145.947476076195	0
13	2513	150.947476076195	0
13	2591	155.947476076195	0
13	2669	160.947476076195	0
13	2747	165.947476076195	0
13	2825	170.947476076195	0
13	2903	175.947476076195	0
13	2981	180.947476076195	0
13	3059	185.947476076195	0
13	3137	190.947476076195	0
13	3201	195.947476076195	0
14	0	0	1
14	19	0.671000632153	1
14	29	0.947476076195	1
14	52	1.169618571661	1
14	137	5.947476076195	1
14	215	10.947476076195	1
14	293	15.947476076195	1
14	371	20.947476076195	1
14	449	25.947476076195	1
14	527	30.947476076195	1
14	548	31.255990231223	1
14	578	32.389731491078	1
14	641	35.947476076195	1
14	719	40.947476076195	1
14	797	45.947476076195	1
14	875	50.947476076195	1
14	953	55.947476076195	1
14	1031	60.947476076195	1
14	1109	65.947476076195	1
14	1187	70.947476076195	1
14	1265	75.947476076195	1
14	1343	80.947476076195	1
14	1421	85.947476076195	1
14	1499	90.947476076195	1
14	1577	95.947476076195	1
14	1655	100.947476076195	1
14	1733	105.947476076195	1
14	1811	110.947476076195	1
14	1889	115.947476076195	1
14	1967	120.947476076195	1
14	2045	125.947476076195	1
14	2123	130.947476076195	1
14	2201	135.947476076195	1
14	2279	140.947476076195	1
14	2357	145.947476076195	1
14	2435	150.947476076195	1
14	2513	155.947476076195	1
14	2591	160.947476076195	1
14	2669	165.947476076195	1
14	2747	170.947476076195	1
14	2825	175.947476076195	1
14	2903	180.947476076195	1
14	2981	185.947476076195	1
14	3059	190.947476076195	1
14	3137	195.947476076195	1
15	19	0.671000632153	0
15	29	0.947476076195	0
15	52	1.169618571661	0
15	137	5.947476076195	0
15	215	10.947476076195	0
15	293	15.947476076195	0
15	371	20.947476076195	0
15	449	25.947476076195	0
15	527	30.947476076195	0
15	548	31.255990231223	0
15	578	32.389731491078	0
15	641	35.947476076195	0
15	719	40.947476076195	0
15	797	45.947476076195	0
15	875	50.947476076195	0
15	953	55.947476076195	0
15	1031	60.947476076195	0
15	1109	65.947476076195	0
15	1187	70.947476076195	0
15	1265	75.947476076195	0
15	1343	80.947476076195	0
15	1421	85.947476076195	0
15	1499	90.947476076195	0
15	1577	95.947476076195	0
15	1655	100.947476076195	0
15	1733	105.947476076195	0
15	1811	110.947476076195	0
15	1889	115.947476076195	0
15	1967	120.947476076195	0
15	2045	125.947476076195	0
15	2123	130.947476076195	0
15	2201	135.947476076195	0
15	2279	140.947476076195	0
15	2357	145.947476076195	0
15	2435	150.947476076195	0
15	2513	155.947476076195	0
15	2591	160.947476076195	0
15	2669	165.947476076195	0
15	2747	170.947476076195	0
15	2825	175.947476076195	0
15	2903	180.947476076195	0
15	2981	185.947476076195	0
15	3059	190.947476076195	0
15	3137	195.947476076195	0
16	0	0	1
17	19	0.671000632153	0
17	29	0.947476076195	0
17	52	1.169618571661	0
17	137	5.947476076195	0
17	215	10.947476076195	0
17	293	15.947476076195	0
17	371	20.947476076195	0
17	449	25.947476076195	0
17	527	30.947476076195	0
17	548	31.255990231223	0
17	578	32.389731491078	0
17	641	35.947476076195	0
17	719	40.947476076195	0
17	797	45.947476076195	0
17	875	50.947476076195	0
17	953	55.947476076195	0
17	1031	60.947476076195	0
17	1109	65.947476076195	0
17	1187	70.947476076195	0
17	1265	75.947476076195	0
17	1343	80.947476076195	0
17	1421	85.947476076195	0
17	1499	90.947476076195	0
17	1577	95.947476076195	0
17	1655	100.947476076195	0
17	1733	105.947476076195	0
17	1811	110.947476076195	0
17	1889	115.947476076195	0
17	1967	120.947476076195	0
17	2045	125.947476076195	0
17	2123	130.947476076195	0
17	2201	135.947476076195	0
17	2279	140.947476076195	0
17	2357	145.947476076195	0
17	2435	150.947476076195	0
17	2513	155.947476076195	0
17	2591	160.947476076195	0
17	2669	165.947476076195	0
17	2747	170.947476076195	0
17	2825	175.947476076195	0
17	2903	180.947476076195	0
17	2981	185.947476076195	0
17	3059	190.947476076195	0
17	3137	195.947476076195	0
18	0	0	0
18	10	0	0
18	48	0.331979804439	0
18	63	1.138118275641	0
18	128	1.519626343198	0
18	206	5.331979804439	0
18	284	10.331979804439	0
18	362	15.331979804439	0
18	440	20.331979804439	0
18	518	25.331979804439	0
18	552	30.331979804439	0
18	587	31.307214565203	0
18	632	32.496089708526	0