version 3
run EDVRPComparisonEDVRP-4-20250705-23:46:13-97481
attr configname EDVRPComparisonEDVRP
attr datetime 20250705-23:46:13
attr datetimef 20250705-234613
attr experiment EDVRPComparisonEDVRP
attr inifile omnetpp.ini
attr iterationvars ""
attr iterationvarsd ""
attr iterationvarsf ""
attr measurement ""
attr network edvrp.simulations.EDVRPTestNetwork
attr processid 97481
attr repetition 4
attr replication #4
attr resultdir results
attr runnumber 4
attr seedset 4
config description "EDVRP behavior on comparison topology"
config network edvrp.simulations.EDVRPTestNetwork
config sim-time-limit 200s
config repeat 5
config cmdenv-express-mode false
config cmdenv-autoflush true
config **.router*.**.result-recording-modes +vector,+histogram,+stats
config network edvrp.simulations.EDVRPTestNetwork
config sim-time-limit 300s
config seed-set 4
config num-rngs 3
config rng-class cMersenneTwister
config output-scalar-file results/EDVRPComparisonEDVRP-4.sca
config output-vector-file results/EDVRPComparisonEDVRP-4.vec
config eventlog-file results/EDVRPComparisonEDVRP-4.elog
config **.scalar-recording true
config **.vector-recording true
config **.router*.convergenceTimeSignal.result-recording-modes +histogram,+stats
config **.router*.routingTableSizeSignal.result-recording-modes +vector,+stats
config **.router*.messageCountSignal.result-recording-modes +count,+sum
config debug-on-errors true
config print-undisposed true

vector 0 EDVRPTestNetwork.router1.port$o[0].channel busy:vector ETV
attr interpolationmode sample-hold
attr recordingmode vector
attr source channelBusy
vector 1 EDVRPTestNetwork.router1.port$o[0].channel utilization:vector ETV
attr recordingmode vector
attr source timeavg(channelBusy)
vector 2 EDVRPTestNetwork.router1.port$o[0].channel packets:vector ETV
attr interpolationmode none
attr recordingmode vector
attr source constant1(messageSent)
vector 3 EDVRPTestNetwork.router1.port$o[0].channel packetBytes:vector ETV
attr interpolationmode none
attr recordingmode vector
attr source packetBytes(messageSent)
attr unit B
vector 4 EDVRPTestNetwork.router1.port$o[0].channel packetsDiscarded:vector ETV
attr interpolationmode none
attr recordingmode vector
attr source constant1(messageDiscarded)
vector 5 EDVRPTestNetwork.router1.port$o[0].channel throughput:vector ETV
attr recordingmode vector
attr source sumPerDuration(packetBits(messageSent))
attr unit bps
vector 6 EDVRPTestNetwork.router2.port$o[0].channel busy:vector ETV
attr interpolationmode sample-hold
attr recordingmode vector
attr source channelBusy
vector 7 EDVRPTestNetwork.router2.port$o[0].channel utilization:vector ETV
attr recordingmode vector
attr source timeavg(channelBusy)
vector 8 EDVRPTestNetwork.router2.port$o[0].channel packets:vector ETV
attr interpolationmode none
attr recordingmode vector
attr source constant1(messageSent)
vector 9 EDVRPTestNetwork.router2.port$o[0].channel packetBytes:vector ETV
attr interpolationmode none
attr recordingmode vector
attr source packetBytes(messageSent)
attr unit B
vector 10 EDVRPTestNetwork.router2.port$o[0].channel packetsDiscarded:vector ETV
attr interpolationmode none
attr recordingmode vector
attr source constant1(messageDiscarded)
vector 11 EDVRPTestNetwork.router2.port$o[0].channel throughput:vector ETV
attr recordingmode vector
attr source sumPerDuration(packetBits(messageSent))
attr unit bps
vector 12 EDVRPTestNetwork.router2.port$o[1].channel busy:vector ETV
attr interpolationmode sample-hold
attr recordingmode vector
attr source channelBusy
vector 13 EDVRPTestNetwork.router2.port$o[1].channel utilization:vector ETV
attr recordingmode vector
attr source timeavg(channelBusy)
vector 14 EDVRPTestNetwork.router2.port$o[1].channel packets:vector ETV
attr interpolationmode none
attr recordingmode vector
attr source constant1(messageSent)
vector 15 EDVRPTestNetwork.router2.port$o[1].channel packetBytes:vector ETV
attr interpolationmode none
attr recordingmode vector
attr source packetBytes(messageSent)
attr unit B
vector 16 EDVRPTestNetwork.router2.port$o[1].channel packetsDiscarded:vector ETV
attr interpolationmode none
attr recordingmode vector
attr source constant1(messageDiscarded)
vector 17 EDVRPTestNetwork.router2.port$o[1].channel throughput:vector ETV
attr recordingmode vector
attr source sumPerDuration(packetBits(messageSent))
attr unit bps
vector 18 EDVRPTestNetwork.router3.port$o[0].channel busy:vector ETV
attr interpolationmode sample-hold
attr recordingmode vector
attr source channelBusy
vector 19 EDVRPTestNetwork.router3.port$o[0].channel utilization:vector ETV
attr recordingmode vector
attr source timeavg(channelBusy)
vector 20 EDVRPTestNetwork.router3.port$o[0].channel packets:vector ETV
attr interpolationmode none
attr recordingmode vector
attr source constant1(messageSent)
vector 21 EDVRPTestNetwork.router3.port$o[0].channel packetBytes:vector ETV
attr interpolationmode none
attr recordingmode vector
attr source packetBytes(messageSent)
attr unit B
vector 22 EDVRPTestNetwork.router3.port$o[0].channel packetsDiscarded:vector ETV
attr interpolationmode none
attr recordingmode vector
attr source constant1(messageDiscarded)
vector 23 EDVRPTestNetwork.router3.port$o[0].channel throughput:vector ETV
attr recordingmode vector
attr source sumPerDuration(packetBits(messageSent))
attr unit bps
vector 24 EDVRPTestNetwork.router3.port$o[1].channel busy:vector ETV
attr interpolationmode sample-hold
attr recordingmode vector
attr source channelBusy
vector 25 EDVRPTestNetwork.router3.port$o[1].channel utilization:vector ETV
attr recordingmode vector
attr source timeavg(channelBusy)
vector 26 EDVRPTestNetwork.router3.port$o[1].channel packets:vector ETV
attr interpolationmode none
attr recordingmode vector
attr source constant1(messageSent)
vector 27 EDVRPTestNetwork.router3.port$o[1].channel packetBytes:vector ETV
attr interpolationmode none
attr recordingmode vector
attr source packetBytes(messageSent)
attr unit B
vector 28 EDVRPTestNetwork.router3.port$o[1].channel packetsDiscarded:vector ETV
attr interpolationmode none
attr recordingmode vector
attr source constant1(messageDiscarded)
vector 29 EDVRPTestNetwork.router3.port$o[1].channel throughput:vector ETV
attr recordingmode vector
attr source sumPerDuration(packetBits(messageSent))
attr unit bps
vector 30 EDVRPTestNetwork.router4.port$o[0].channel busy:vector ETV
attr interpolationmode sample-hold
attr recordingmode vector
attr source channelBusy
vector 31 EDVRPTestNetwork.router4.port$o[0].channel utilization:vector ETV
attr recordingmode vector
attr source timeavg(channelBusy)
vector 32 EDVRPTestNetwork.router4.port$o[0].channel packets:vector ETV
attr interpolationmode none
attr recordingmode vector
attr source constant1(messageSent)
vector 33 EDVRPTestNetwork.router4.port$o[0].channel packetBytes:vector ETV
attr interpolationmode none
attr recordingmode vector
attr source packetBytes(messageSent)
attr unit B
vector 34 EDVRPTestNetwork.router4.port$o[0].channel packetsDiscarded:vector ETV
attr interpolationmode none
attr recordingmode vector
attr source constant1(messageDiscarded)
vector 35 EDVRPTestNetwork.router4.port$o[0].channel throughput:vector ETV
attr recordingmode vector
attr source sumPerDuration(packetBits(messageSent))
attr unit bps
vector 36 EDVRPTestNetwork.router2.port$o[2].channel busy:vector ETV
attr interpolationmode sample-hold
attr recordingmode vector
attr source channelBusy
vector 37 EDVRPTestNetwork.router2.port$o[2].channel utilization:vector ETV
attr recordingmode vector
attr source timeavg(channelBusy)
vector 38 EDVRPTestNetwork.router2.port$o[2].channel packets:vector ETV
attr interpolationmode none
attr recordingmode vector
attr source constant1(messageSent)
vector 39 EDVRPTestNetwork.router2.port$o[2].channel packetBytes:vector ETV
attr interpolationmode none
attr recordingmode vector
attr source packetBytes(messageSent)
attr unit B
vector 40 EDVRPTestNetwork.router2.port$o[2].channel packetsDiscarded:vector ETV
attr interpolationmode none
attr recordingmode vector
attr source constant1(messageDiscarded)
vector 41 EDVRPTestNetwork.router2.port$o[2].channel throughput:vector ETV
attr recordingmode vector
attr source sumPerDuration(packetBits(messageSent))
attr unit bps
vector 42 EDVRPTestNetwork.router5.port$o[0].channel busy:vector ETV
attr interpolationmode sample-hold
attr recordingmode vector
attr source channelBusy
vector 43 EDVRPTestNetwork.router5.port$o[0].channel utilization:vector ETV
attr recordingmode vector
attr source timeavg(channelBusy)
vector 44 EDVRPTestNetwork.router5.port$o[0].channel packets:vector ETV
attr interpolationmode none
attr recordingmode vector
attr source constant1(messageSent)
vector 45 EDVRPTestNetwork.router5.port$o[0].channel packetBytes:vector ETV
attr interpolationmode none
attr recordingmode vector
attr source packetBytes(messageSent)
attr unit B
vector 46 EDVRPTestNetwork.router5.port$o[0].channel packetsDiscarded:vector ETV
attr interpolationmode none
attr recordingmode vector
attr source constant1(messageDiscarded)
vector 47 EDVRPTestNetwork.router5.port$o[0].channel throughput:vector ETV
attr recordingmode vector
attr source sumPerDuration(packetBits(messageSent))
attr unit bps
vector 48 EDVRPTestNetwork.router3.port$o[2].channel busy:vector ETV
attr interpolationmode sample-hold
attr recordingmode vector
attr source channelBusy
vector 49 EDVRPTestNetwork.router3.port$o[2].channel utilization:vector ETV
attr recordingmode vector
attr source timeavg(channelBusy)
vector 50 EDVRPTestNetwork.router3.port$o[2].channel packets:vector ETV
attr interpolationmode none
attr recordingmode vector
attr source constant1(messageSent)
vector 51 EDVRPTestNetwork.router3.port$o[2].channel packetBytes:vector ETV
attr interpolationmode none
attr recordingmode vector
attr source packetBytes(messageSent)
attr unit B
vector 52 EDVRPTestNetwork.router3.port$o[2].channel packetsDiscarded:vector ETV
attr interpolationmode none
attr recordingmode vector
attr source constant1(messageDiscarded)
vector 53 EDVRPTestNetwork.router3.port$o[2].channel throughput:vector ETV
attr recordingmode vector
attr source sumPerDuration(packetBits(messageSent))
attr unit bps
vector 54 EDVRPTestNetwork.router6.port$o[0].channel busy:vector ETV
attr interpolationmode sample-hold
attr recordingmode vector
attr source channelBusy
vector 55 EDVRPTestNetwork.router6.port$o[0].channel utilization:vector ETV
attr recordingmode vector
attr source timeavg(channelBusy)
vector 56 EDVRPTestNetwork.router6.port$o[0].channel packets:vector ETV
attr interpolationmode none
attr recordingmode vector
attr source constant1(messageSent)
vector 57 EDVRPTestNetwork.router6.port$o[0].channel packetBytes:vector ETV
attr interpolationmode none
attr recordingmode vector
attr source packetBytes(messageSent)
attr unit B
vector 58 EDVRPTestNetwork.router6.port$o[0].channel packetsDiscarded:vector ETV
attr interpolationmode none
attr recordingmode vector
attr source constant1(messageDiscarded)
vector 59 EDVRPTestNetwork.router6.port$o[0].channel throughput:vector ETV
attr recordingmode vector
attr source sumPerDuration(packetBits(messageSent))
attr unit bps
vector 60 EDVRPTestNetwork.router5.port$o[1].channel busy:vector ETV
attr interpolationmode sample-hold
attr recordingmode vector
attr source channelBusy
vector 61 EDVRPTestNetwork.router5.port$o[1].channel utilization:vector ETV
attr recordingmode vector
attr source timeavg(channelBusy)
vector 62 EDVRPTestNetwork.router5.port$o[1].channel packets:vector ETV
attr interpolationmode none
attr recordingmode vector
attr source constant1(messageSent)
vector 63 EDVRPTestNetwork.router5.port$o[1].channel packetBytes:vector ETV
attr interpolationmode none
attr recordingmode vector
attr source packetBytes(messageSent)
attr unit B
vector 64 EDVRPTestNetwork.router5.port$o[1].channel packetsDiscarded:vector ETV
attr interpolationmode none
attr recordingmode vector
attr source constant1(messageDiscarded)
vector 65 EDVRPTestNetwork.router5.port$o[1].channel throughput:vector ETV
attr recordingmode vector
attr source sumPerDuration(packetBits(messageSent))
attr unit bps
vector 66 EDVRPTestNetwork.router6.port$o[1].channel busy:vector ETV
attr interpolationmode sample-hold
attr recordingmode vector
attr source channelBusy
vector 67 EDVRPTestNetwork.router6.port$o[1].channel utilization:vector ETV
attr recordingmode vector
attr source timeavg(channelBusy)
vector 68 EDVRPTestNetwork.router6.port$o[1].channel packets:vector ETV
attr interpolationmode none
attr recordingmode vector
attr source constant1(messageSent)
vector 69 EDVRPTestNetwork.router6.port$o[1].channel packetBytes:vector ETV
attr interpolationmode none
attr recordingmode vector
attr source packetBytes(messageSent)
attr unit B
vector 70 EDVRPTestNetwork.router6.port$o[1].channel packetsDiscarded:vector ETV
attr interpolationmode none
attr recordingmode vector
attr source constant1(messageDiscarded)
vector 71 EDVRPTestNetwork.router6.port$o[1].channel throughput:vector ETV
attr recordingmode vector
attr source sumPerDuration(packetBits(messageSent))
attr unit bps
0	0	0	0
0	4	0	0
0	22	0.154162841616	0
0	43	0.560807412745	0
0	73	0.954988555884	0
0	131	1.595228456937	0
0	209	5.154162841616	0
0	287	10.154162841616	0
0	365	15.154162841616	0
0	443	20.154162841616	0
0	521	25.154162841616	0
0	564	30.154162841616	0
0	585	31.477690054197	0
0	631	32.308490410727	0
0	709	35.154162841616	0
0	787	40.154162841616	0
0	865	45.154162841616	0
0	943	50.154162841616	0
0	1021	55.154162841616	0
0	1099	60.154162841616	0
0	1177	65.154162841616	0
0	1255	70.154162841616	0
0	1333	75.154162841616	0
0	1411	80.154162841616	0
0	1489	85.154162841616	0
0	1567	90.154162841616	0
0	1645	95.154162841616	0
0	1723	100.154162841616	0
0	1801	105.154162841616	0
0	1879	110.154162841616	0
0	1957	115.154162841616	0
0	2035	120.154162841616	0
0	2113	125.154162841616	0
0	2191	130.154162841616	0
0	2269	135.154162841616	0
0	2347	140.154162841616	0
0	2425	145.154162841616	0
0	2503	150.154162841616	0
0	2581	155.154162841616	0
0	2659	160.154162841616	0
0	2737	165.154162841616	0
0	2815	170.154162841616	0
0	2893	175.154162841616	0
0	2971	180.154162841616	0
0	3049	185.154162841616	0
0	3127	190.154162841616	0
0	3202	195.154162841616	0
1	22	0.154162841616	0
1	43	0.560807412745	0
1	73	0.954988555884	0
1	131	1.595228456937	0
1	209	5.154162841616	0
1	287	10.154162841616	0
1	365	15.154162841616	0
1	443	20.154162841616	0
1	521	25.154162841616	0
1	564	30.154162841616	0
1	585	31.477690054197	0
1	631	32.308490410727	0
1	709	35.154162841616	0
1	787	40.154162841616	0
1	865	45.154162841616	0
1	943	50.154162841616	0
1	1021	55.154162841616	0
1	1099	60.154162841616	0
1	1177	65.154162841616	0
1	1255	70.154162841616	0
1	1333	75.154162841616	0
1	1411	80.154162841616	0
1	1489	85.154162841616	0
1	1567	90.154162841616	0
1	1645	95.154162841616	0
1	1723	100.154162841616	0
1	1801	105.154162841616	0
1	1879	110.154162841616	0
1	1957	115.154162841616	0
1	2035	120.154162841616	0
1	2113	125.154162841616	0
1	2191	130.154162841616	0
1	2269	135.154162841616	0
1	2347	140.154162841616	0
1	2425	145.154162841616	0
1	2503	150.154162841616	0
1	2581	155.154162841616	0
1	2659	160.154162841616	0
1	2737	165.154162841616	0
1	2815	170.154162841616	0
1	2893	175.154162841616	0
1	2971	180.154162841616	0
1	3049	185.154162841616	0
1	3127	190.154162841616	0
1	3202	195.154162841616	0
2	0	0	1
2	4	0.154162841616	1
2	22	0.560807412745	1
2	43	0.954988555884	1
2	73	1.595228456937	1
2	131	5.154162841616	1
2	209	10.154162841616	1
2	287	15.154162841616	1
2	365	20.154162841616	1
2	443	25.154162841616	1
2	521	30.154162841616	1
2	564	31.477690054197	1
2	585	32.308490410727	1
2	631	35.154162841616	1
2	709	40.154162841616	1
2	787	45.154162841616	1
2	865	50.154162841616	1
2	943	55.154162841616	1
2	1021	60.154162841616	1
2	1099	65.154162841616	1
2	1177	70.154162841616	1
2	1255	75.154162841616	1
2	1333	80.154162841616	1
2	1411	85.154162841616	1
2	1489	90.154162841616	1
2	1567	95.154162841616	1
2	1645	100.154162841616	1
2	1723	105.154162841616	1
2	1801	110.154162841616	1
2	1879	115.154162841616	1
2	1957	120.154162841616	1
2	2035	125.154162841616	1
2	2113	130.154162841616	1
2	2191	135.154162841616	1
2	2269	140.154162841616	1
2	2347	145.154162841616	1
2	2425	150.154162841616	1
2	2503	155.154162841616	1
2	2581	160.154162841616	1
2	2659	165.154162841616	1
2	2737	170.154162841616	1
2	2815	175.154162841616	1
2	2893	180.154162841616	1
2	2971	185.154162841616	1
2	3049	190.154162841616	1
2	3127	195.154162841616	1
3	4	0.154162841616	0
3	22	0.560807412745	0
3	43	0.954988555884	0
3	73	1.595228456937	0
3	131	5.154162841616	0
3	209	10.154162841616	0
3	287	15.154162841616	0
3	365	20.154162841616	0
3	443	25.154162841616	0
3	521	30.154162841616	0
3	564	31.477690054197	0
3	585	32.308490410727	0
3	631	35.154162841616	0
3	709	40.154162841616	0
3	787	45.154162841616	0
3	865	50.154162841616	0
3	943	55.154162841616	0
3	1021	60.154162841616	0
3	1099	65.154162841616	0
3	1177	70.154162841616	0
3	1255	75.154162841616	0
3	1333	80.154162841616	0
3	1411	85.154162841616	0
3	1489	90.154162841616	0
3	1567	95.154162841616	0
3	1645	100.154162841616	0
3	1723	105.154162841616	0
3	1801	110.154162841616	0
3	1879	115.154162841616	0
3	1957	120.154162841616	0
3	2035	125.154162841616	0
3	2113	130.154162841616	0
3	2191	135.154162841616	0
3	2269	140.154162841616	0
3	2347	145.154162841616	0
3	2425	150.154162841616	0
3	2503	155.154162841616	0
3	2581	160.154162841616	0
3	2659	165.154162841616	0
3	2737	170.154162841616	0
3	2815	175.154162841616	0
3	2893	180.154162841616	0
3	2971	185.154162841616	0
3	3049	190.154162841616	0
3	3127	195.154162841616	0
4	0	0	1
5	4	0.154162841616	0
5	22	0.560807412745	0
5	43	0.954988555884	0
5	73	1.595228456937	0
5	131	5.154162841616	0
5	209	10.154162841616	0
5	287	15.154162841616	0
5	365	20.154162841616	0
5	443	25.154162841616	0
5	521	30.154162841616	0
5	564	31.477690054197	0
5	585	32.308490410727	0
5	631	35.154162841616	0
5	709	40.154162841616	0
5	787	45.154162841616	0
5	865	50.154162841616	0
5	943	55.154162841616	0
5	1021	60.154162841616	0
5	1099	65.154162841616	0
5	1177	70.154162841616	0
5	1255	75.154162841616	0
5	1333	80.154162841616	0
5	1411	85.154162841616	0
5	1489	90.154162841616	0
5	1567	95.154162841616	0
5	1645	100.154162841616	0
5	1723	105.154162841616	0
5	1801	110.154162841616	0
5	1879	115.154162841616	0
5	1957	120.154162841616	0
5	2035	125.154162841616	0
5	2113	130.154162841616	0
5	2191	135.154162841616	0
5	2269	140.154162841616	0
5	2347	145.154162841616	0
5	2425	150.154162841616	0
5	2503	155.154162841616	0
5	2581	160.154162841616	0
5	2659	165.154162841616	0
5	2737	170.154162841616	0
5	2815	175.154162841616	0
5	2893	180.154162841616	0
5	2971	185.154162841616	0
5	3049	190.154162841616	0
5	3127	195.154162841616	0
6	0	0	0
6	6	0	0
6	13	0.260992826683	0
6	24	0.44622174534	0
6	62	0.735813823687	0
6	136	1.223829423938	0
6	214	5.44622174534	0
6	292	10.44622174534	0
6	370	15.44622174534	0
6	448	20.44622174534	0
6	526	25.44622174534	0
6	554	30.44622174534	0
6	636	31.292612083443	0
6	714	35.44622174534	0
6	792	40.44622174534	0
6	870	45.44622174534	0
6	948	50.44622174534	0
6	1026	55.44622174534	0
6	1104	60.44622174534	0
6	1182	65.44622174534	0
6	1260	70.44622174534	0
6	1338	75.44622174534	0
6	1416	80.44622174534	0
6	1494	85.44622174534	0
6	1572	90.44622174534	0
6	1650	95.44622174534	0
6	1728	100.44622174534	0
6	1806	105.44622174534	0
6	1884	110.44622174534	0
6	1962	115.44622174534	0
6	2040	120.44622174534	0
6	2118	125.44622174534	0
6	2196	130.44622174534	0
6	2274	135.44622174534	0
6	2352	140.44622174534	0
6	2430	145.44622174534	0
6	2508	150.44622174534	0
6	2586	155.44622174534	0
6	2664	160.44622174534	0
6	2742	165.44622174534	0
6	2820	170.44622174534	0
6	2898	175.44622174534	0
6	2976	180.44622174534	0
6	3054	185.44622174534	0
6	3132	190.44622174534	0
6	3202	195.44622174534	0
7	13	0.260992826683	0
7	24	0.44622174534	0
7	62	0.735813823687	0
7	136	1.223829423938	0
7	214	5.44622174534	0
7	292	10.44622174534	0
7	370	15.44622174534	0
7	448	20.44622174534	0
7	526	25.44622174534	0
7	554	30.44622174534	0
7	636	31.292612083443	0
7	714	35.44622174534	0
7	792	40.44622174534	0
7	870	45.44622174534	0
7	948	50.44622174534	0
7	1026	55.44622174534	0
7	1104	60.44622174534	0
7	1182	65.44622174534	0
7	1260	70.44622174534	0
7	1338	75.44622174534	0
7	1416	80.44622174534	0
7	1494	85.44622174534	0
7	1572	90.44622174534	0
7	1650	95.44622174534	0
7	1728	100.44622174534	0
7	1806	105.44622174534	0
7	1884	110.44622174534	0
7	1962	115.44622174534	0
7	2040	120.44622174534	0
7	2118	125.44622174534	0
7	2196	130.44622174534	0
7	2274	135.44622174534	0
7	2352	140.44622174534	0
7	2430	145.44622174534	0
7	2508	150.44622174534	0
7	2586	155.44622174534	0
7	2664	160.44622174534	0
7	2742	165.44622174534	0
7	2820	170.44622174534	0
7	2898	175.44622174534	0
7	2976	180.44622174534	0
7	3054	185.44622174534	0
7	3132	190.44622174534	0
7	3202	195.44622174534	0
8	0	0	1
8	6	0.260992826683	1
8	13	0.44622174534	1
8	24	0.735813823687	1
8	62	1.223829423938	1
8	136	5.44622174534	1
8	214	10.44622174534	1
8	292	15.44622174534	1
8	370	20.44622174534	1
8	448	25.44622174534	1
8	526	30.44622174534	1
8	554	31.292612083443	1
8	636	35.44622174534	1
8	714	40.44622174534	1
8	792	45.44622174534	1
8	870	50.44622174534	1
8	948	55.44622174534	1
8	1026	60.44622174534	1
8	1104	65.44622174534	1
8	1182	70.44622174534	1
8	1260	75.44622174534	1
8	1338	80.44622174534	1
8	1416	85.44622174534	1
8	1494	90.44622174534	1
8	1572	95.44622174534	1
8	1650	100.44622174534	1
8	1728	105.44622174534	1
8	1806	110.44622174534	1
8	1884	115.44622174534	1
8	1962	120.44622174534	1
8	2040	125.44622174534	1
8	2118	130.44622174534	1
8	2196	135.44622174534	1
8	2274	140.44622174534	1
8	2352	145.44622174534	1
8	2430	150.44622174534	1
8	2508	155.44622174534	1
8	2586	160.44622174534	1
8	2664	165.44622174534	1
8	2742	170.44622174534	1
8	2820	175.44622174534	1
8	2898	180.44622174534	1
8	2976	185.44622174534	1
8	3054	190.44622174534	1
8	3132	195.44622174534	1
9	6	0.260992826683	0
9	13	0.44622174534	0
9	24	0.735813823687	0
9	62	1.223829423938	0
9	136	5.44622174534	0
9	214	10.44622174534	0
9	292	15.44622174534	0
9	370	20.44622174534	0
9	448	25.44622174534	0
9	526	30.44622174534	0
9	554	31.292612083443	0
9	636	35.44622174534	0
9	714	40.44622174534	0
9	792	45.44622174534	0
9	870	50.44622174534	0
9	948	55.44622174534	0
9	1026	60.44622174534	0
9	1104	65.44622174534	0
9	1182	70.44622174534	0
9	1260	75.44622174534	0
9	1338	80.44622174534	0
9	1416	85.44622174534	0
9	1494	90.44622174534	0
9	1572	95.44622174534	0
9	1650	100.44622174534	0
9	1728	105.44622174534	0
9	1806	110.44622174534	0
9	1884	115.44622174534	0
9	1962	120.44622174534	0
9	2040	125.44622174534	0
9	2118	130.44622174534	0
9	2196	135.44622174534	0
9	2274	140.44622174534	0
9	2352	145.44622174534	0
9	2430	150.44622174534	0
9	2508	155.44622174534	0
9	2586	160.44622174534	0
9	2664	165.44622174534	0
9	2742	170.44622174534	0
9	2820	175.44622174534	0
9	2898	180.44622174534	0
9	2976	185.44622174534	0
9	3054	190.44622174534	0
9	3132	195.44622174534	0
10	0	0	1
11	6	0.260992826683	0
11	13	0.44622174534	0
11	24	0.735813823687	0
11	62	1.223829423938	0
11	136	5.44622174534	0
11	214	10.44622174534	0
11	292	15.44622174534	0
11	370	20.44622174534	0
11	448	25.44622174534	0
11	526	30.44622174534	0
11	554	31.292612083443	0
11	636	35.44622174534	0
11	714	40.44622174534	0
11	792	45.44622174534	0
11	870	50.44622174534	0
11	948	55.44622174534	0
11	1026	60.44622174534	0
11	1104	65.44622174534	0
11	1182	70.44622174534	0
11	1260	75.44622174534	0
11	1338	80.44622174534	0
11	1416	85.44622174534	0
11	1494	90.44622174534	0
11	1572	95.44622174534	0
11	1650	100.44622174534	0
11	1728	105.44622174534	0
11	1806	110.44622174534	0
11	1884	115.44622174534	0
11	1962	120.44622174534	0
11	2040	125.44622174534	0
11	2118	130.44622174534	0
11	2196	135.44622174534	0
11	2274	140.44622174534	0
11	2352	145.44622174534	0
11	2430	150.44622174534	0
11	2508	155.44622174534	0
11	2586	160.44622174534	0
11	2664	165.44622174534	0
11	2742	170.44622174534	0
11	2820	175.44622174534	0
11	2898	180.44622174534	0
11	2976	185.44622174534	0
11	3054	190.44622174534	0
11	3132	195.44622174534	0
12	0	0	0
12	13	0	0
12	62	0.44622174534	0
12	136	1.223829423938	0
12	214	5.44622174534	0
12	292	10.44622174534	0
12	370	15.44622174534	0
12	448	20.44622174534	0
12	526	25.44622174534	0
12	554	30.44622174534	0
12	636	31.292612083443	0
12	714	35.44622174534	0
12	792	40.44622174534	0
12	870	45.44622174534	0
12	948	50.44622174534	0
12	1026	55.44622174534	0
12	1104	60.44622174534	0
12	1182	65.44622174534	0
12	1260	70.44622174534	0
12	1338	75.44622174534	0
12	1416	80.44622174534	0
12	1494	85.44622174534	0
12	1572	90.44622174534	0
12	1650	95.44622174534	0
12	1728	100.44622174534	0
12	1806	105.44622174534	0
12	1884	110.44622174534	0
12	1962	115.44622174534	0
12	2040	120.44622174534	0
12	2118	125.44622174534	0
12	2196	130.44622174534	0
12	2274	135.44622174534	0
12	2352	140.44622174534	0
12	2430	145.44622174534	0
12	2508	150.44622174534	0
12	2586	155.44622174534	0
12	2664	160.44622174534	0
12	2742	165.44622174534	0
12	2820	170.44622174534	0
12	2898	175.44622174534	0
12	2976	180.44622174534	0
12	3054	185.44622174534	0
12	3132	190.44622174534	0
12	3202	195.44622174534	0
13	62	0.44622174534	0
13	136	1.223829423938	0
13	214	5.44622174534	0
13	292	10.44622174534	0
13	370	15.44622174534	0
13	448	20.44622174534	0
13	526	25.44622174534	0
13	554	30.44622174534	0
13	636	31.292612083443	0
13	714	35.44622174534	0
13	792	40.44622174534	0
13	870	45.44622174534	0
13	948	50.44622174534	0
13	1026	55.44622174534	0
13	1104	60.44622174534	0
13	1182	65.44622174534	0
13	1260	70.44622174534	0
13	1338	75.44622174534	0
13	1416	80.44622174534	0
13	1494	85.44622174534	0
13	1572	90.44622174534	0
13	1650	95.44622174534	0
13	1728	100.44622174534	0
13	1806	105.44622174534	0
13	1884	110.44622174534	0
13	1962	115.44622174534	0
13	2040	120.44622174534	0
13	2118	125.44622174534	0
13	2196	130.44622174534	0
13	2274	135.44622174534	0
13	2352	140.44622174534	0
13	2430	145.44622174534	0
13	2508	150.44622174534	0
13	2586	155.44622174534	0
13	2664	160.44622174534	0
13	2742	165.44622174534	0
13	2820	170.44622174534	0
13	2898	175.44622174534	0
13	2976	180.44622174534	0
13	3054	185.44622174534	0
13	3132	190.44622174534	0
13	3202	195.44622174534	0
14	0	0	1
14	13	0.44622174534	1
14	62	1.223829423938	1
14	136	5.44622174534	1
14	214	10.44622174534	1
14	292	15.44622174534	1
14	370	20.44622174534	1
14	448	25.44622174534	1
14	526	30.44622174534	1
14	554	31.292612083443	1
14	636	35.44622174534	1
14	714	40.44622174534	1
14	792	45.44622174534	1
14	870	50.44622174534	1
14	948	55.44622174534	1
14	1026	60.44622174534	1
14	1104	65.44622174534	1
14	1182	70.44622174534	1
14	1260	75.44622174534	1
14	1338	80.44622174534	1
14	1416	85.44622174534	1
14	1494	90.44622174534	1
14	1572	95.44622174534	1
14	1650	100.44622174534	1
14	1728	105.44622174534	1
14	1806	110.44622174534	1
14	1884	115.44622174534	1
14	1962	120.44622174534	1
14	2040	125.44622174534	1
14	2118	130.44622174534	1
14	2196	135.44622174534	1
14	2274	140.44622174534	1
14	2352	145.44622174534	1
14	2430	150.44622174534	1
14	2508	155.44622174534	1
14	2586	160.44622174534	1
14	2664	165.44622174534	1
14	2742	170.44622174534	1
14	2820	175.44622174534	1
14	2898	180.44622174534	1
14	2976	185.44622174534	1
14	3054	190.44622174534	1
14	3132	195.44622174534	1
15	13	0.44622174534	0
15	62	1.223829423938	0
15	136	5.44622174534	0
15	214	10.44622174534	0
15	292	15.44622174534	0
15	370	20.44622174534	0
15	448	25.44622174534	0
15	526	30.44622174534	0
15	554	31.292612083443	0
15	636	35.44622174534	0
15	714	40.44622174534	0
15	792	45.44622174534	0
15	870	50.44622174534	0
15	948	55.44622174534	0
15	1026	60.44622174534	0
15	1104	65.44622174534	0
15	1182	70.44622174534	0
15	1260	75.44622174534	0
15	1338	80.44622174534	0
15	1416	85.44622174534	0
15	1494	90.44622174534	0
15	1572	95.44622174534	0
15	1650	100.44622174534	0
15	1728	105.44622174534	0
15	1806	110.44622174534	0
15	1884	115.44622174534	0
15	1962	120.44622174534	0
15	2040	125.44622174534	0
15	2118	130.44622174534	0
15	2196	135.44622174534	0
15	2274	140.44622174534	0
15	2352	145.44622174534	0
15	2430	150.44622174534	0
15	2508	155.44622174534	0
15	2586	160.44622174534	0
15	2664	165.44622174534	0
15	2742	170.44622174534	0
15	2820	175.44622174534	0
15	2898	180.44622174534	0
15	2976	185.44622174534	0
15	3054	190.44622174534	0
15	3132	195.44622174534	0
16	0	0	1
17	13	0.44622174534	0
17	62	1.223829423938	0
17	136	5.44622174534	0
17	214	10.44622174534	0
17	292	15.44622174534	0
17	370	20.44622174534	0
17	448	25.44622174534	0
17	526	30.44622174534	0
17	554	31.292612083443	0
17	636	35.44622174534	0
17	714	40.44622174534	0
17	792	45.44622174534	0
17	870	50.44622174534	0
17	948	55.44622174534	0
17	1026	60.44622174534	0
17	1104	65.44622174534	0
17	1182	70.44622174534	0
17	1260	75.44622174534	0
17	1338	80.44622174534	0
17	1416	85.44622174534	0
17	1494	90.44622174534	0
17	1572	95.44622174534	0
17	1650	100.44622174534	0
17	1728	105.44622174534	0
17	1806	110.44622174534	0
17	1884	115.44622174534	0
17	1962	120.44622174534	0
17	2040	125.44622174534	0
17	2118	130.44622174534	0
17	2196	135.44622174534	0
17	2274	140.44622174534	0
17	2352	145.44622174534	0
17	2430	150.44622174534	0
17	2508	155.44622174534	0
17	2586	160.44622174534	0
17	2664	165.44622174534	0
17	2742	170.44622174534	0
17	2820	175.44622174534	0
17	2898	180.44622174534	0
17	2976	185.44622174534	0
17	3054	190.44622174534	0
17	3132	195.44622174534	0
18	0	0	0
18	26	0	0
18	39	0.740049691405	0
18	69	0.907507687969	0
18	140	1.279941101577	0
18	218	5.740049691405	0
18	296	10.740049691405	0
18	374	15.740049691405	0
18	452	20.740049691405	0
18	530	25.740049691405	0
18	558	30.740049691405	0
18	578	31.441094216052	0
18	640	32.159189549182	0
18	718	35.740049691405	0
18	796	40.740049691405	0
18	874	45.740049691405	0
18	952	50.740049691405	0
18	1030	55.740049691405	0
18	1108	60.740049691405	0
18	1186	65.740049691405	0
18	1264	70.740049691405	0
18	1342	75.740049691405	0
18	1420	80.740049691405	0
18	1498	85.740049691405	0
18	1576	90.740049691405	0
18	1654	95.740049691405	0