version 3
run EDVRPComparisonEDVRP-0-20250705-23:02:29-80749
attr configname EDVRPComparisonEDVRP
attr datetime 20250705-23:02:29
attr datetimef 20250705-230229
attr experiment EDVRPComparisonEDVRP
attr inifile omnetpp.ini
attr iterationvars ""
attr iterationvarsd ""
attr iterationvarsf ""
attr measurement ""
attr network edvrp.simulations.EDVRPTestNetwork
attr processid 80749
attr repetition 0
attr replication #0
attr resultdir results
attr runnumber 0
attr seedset 0
config description "EDVRP behavior on comparison topology"
config network edvrp.simulations.EDVRPTestNetwork
config sim-time-limit 200s
config repeat 5
config cmdenv-express-mode false
config cmdenv-autoflush true
config **.router*.**.result-recording-modes +vector,+histogram,+stats
config network edvrp.simulations.EDVRPTestNetwork
config sim-time-limit 300s
config seed-set 0
config num-rngs 3
config rng-class cMersenneTwister
config output-scalar-file results/EDVRPComparisonEDVRP-0.sca
config output-vector-file results/EDVRPComparisonEDVRP-0.vec
config eventlog-file results/EDVRPComparisonEDVRP-0.elog
config **.scalar-recording true
config **.vector-recording true
config **.router*.convergenceTimeSignal.result-recording-modes +histogram,+stats
config **.router*.routingTableSizeSignal.result-recording-modes +vector,+stats
config **.router*.messageCountSignal.result-recording-modes +count,+sum
config debug-on-errors true
config print-undisposed true

vector 0 EDVRPTestNetwork.router1.port$o[0].channel busy:vector ETV
attr interpolationmode sample-hold
attr recordingmode vector
attr source channelBusy
vector 1 EDVRPTestNetwork.router1.port$o[0].channel utilization:vector ETV
attr recordingmode vector
attr source timeavg(channelBusy)
vector 2 EDVRPTestNetwork.router1.port$o[0].channel packets:vector ETV
attr interpolationmode none
attr recordingmode vector
attr source constant1(messageSent)
vector 3 EDVRPTestNetwork.router1.port$o[0].channel packetBytes:vector ETV
attr interpolationmode none
attr recordingmode vector
attr source packetBytes(messageSent)
attr unit B
vector 4 EDVRPTestNetwork.router1.port$o[0].channel packetsDiscarded:vector ETV
attr interpolationmode none
attr recordingmode vector
attr source constant1(messageDiscarded)
vector 5 EDVRPTestNetwork.router1.port$o[0].channel throughput:vector ETV
attr recordingmode vector
attr source sumPerDuration(packetBits(messageSent))
attr unit bps
vector 6 EDVRPTestNetwork.router2.port$o[0].channel busy:vector ETV
attr interpolationmode sample-hold
attr recordingmode vector
attr source channelBusy
vector 7 EDVRPTestNetwork.router2.port$o[0].channel utilization:vector ETV
attr recordingmode vector
attr source timeavg(channelBusy)
vector 8 EDVRPTestNetwork.router2.port$o[0].channel packets:vector ETV
attr interpolationmode none
attr recordingmode vector
attr source constant1(messageSent)
vector 9 EDVRPTestNetwork.router2.port$o[0].channel packetBytes:vector ETV
attr interpolationmode none
attr recordingmode vector
attr source packetBytes(messageSent)
attr unit B
vector 10 EDVRPTestNetwork.router2.port$o[0].channel packetsDiscarded:vector ETV
attr interpolationmode none
attr recordingmode vector
attr source constant1(messageDiscarded)
vector 11 EDVRPTestNetwork.router2.port$o[0].channel throughput:vector ETV
attr recordingmode vector
attr source sumPerDuration(packetBits(messageSent))
attr unit bps
vector 12 EDVRPTestNetwork.router2.port$o[1].channel busy:vector ETV
attr interpolationmode sample-hold
attr recordingmode vector
attr source channelBusy
vector 13 EDVRPTestNetwork.router2.port$o[1].channel utilization:vector ETV
attr recordingmode vector
attr source timeavg(channelBusy)
vector 14 EDVRPTestNetwork.router2.port$o[1].channel packets:vector ETV
attr interpolationmode none
attr recordingmode vector
attr source constant1(messageSent)
vector 15 EDVRPTestNetwork.router2.port$o[1].channel packetBytes:vector ETV
attr interpolationmode none
attr recordingmode vector
attr source packetBytes(messageSent)
attr unit B
vector 16 EDVRPTestNetwork.router2.port$o[1].channel packetsDiscarded:vector ETV
attr interpolationmode none
attr recordingmode vector
attr source constant1(messageDiscarded)
vector 17 EDVRPTestNetwork.router2.port$o[1].channel throughput:vector ETV
attr recordingmode vector
attr source sumPerDuration(packetBits(messageSent))
attr unit bps
vector 18 EDVRPTestNetwork.router3.port$o[0].channel busy:vector ETV
attr interpolationmode sample-hold
attr recordingmode vector
attr source channelBusy
vector 19 EDVRPTestNetwork.router3.port$o[0].channel utilization:vector ETV
attr recordingmode vector
attr source timeavg(channelBusy)
vector 20 EDVRPTestNetwork.router3.port$o[0].channel packets:vector ETV
attr interpolationmode none
attr recordingmode vector
attr source constant1(messageSent)
vector 21 EDVRPTestNetwork.router3.port$o[0].channel packetBytes:vector ETV
attr interpolationmode none
attr recordingmode vector
attr source packetBytes(messageSent)
attr unit B
vector 22 EDVRPTestNetwork.router3.port$o[0].channel packetsDiscarded:vector ETV
attr interpolationmode none
attr recordingmode vector
attr source constant1(messageDiscarded)
vector 23 EDVRPTestNetwork.router3.port$o[0].channel throughput:vector ETV
attr recordingmode vector
attr source sumPerDuration(packetBits(messageSent))
attr unit bps
vector 24 EDVRPTestNetwork.router3.port$o[1].channel busy:vector ETV
attr interpolationmode sample-hold
attr recordingmode vector
attr source channelBusy
vector 25 EDVRPTestNetwork.router3.port$o[1].channel utilization:vector ETV
attr recordingmode vector
attr source timeavg(channelBusy)
vector 26 EDVRPTestNetwork.router3.port$o[1].channel packets:vector ETV
attr interpolationmode none
attr recordingmode vector
attr source constant1(messageSent)
vector 27 EDVRPTestNetwork.router3.port$o[1].channel packetBytes:vector ETV
attr interpolationmode none
attr recordingmode vector
attr source packetBytes(messageSent)
attr unit B
vector 28 EDVRPTestNetwork.router3.port$o[1].channel packetsDiscarded:vector ETV
attr interpolationmode none
attr recordingmode vector
attr source constant1(messageDiscarded)
vector 29 EDVRPTestNetwork.router3.port$o[1].channel throughput:vector ETV
attr recordingmode vector
attr source sumPerDuration(packetBits(messageSent))
attr unit bps
vector 30 EDVRPTestNetwork.router4.port$o[0].channel busy:vector ETV
attr interpolationmode sample-hold
attr recordingmode vector
attr source channelBusy
vector 31 EDVRPTestNetwork.router4.port$o[0].channel utilization:vector ETV
attr recordingmode vector
attr source timeavg(channelBusy)
vector 32 EDVRPTestNetwork.router4.port$o[0].channel packets:vector ETV
attr interpolationmode none
attr recordingmode vector
attr source constant1(messageSent)
vector 33 EDVRPTestNetwork.router4.port$o[0].channel packetBytes:vector ETV
attr interpolationmode none
attr recordingmode vector
attr source packetBytes(messageSent)
attr unit B
vector 34 EDVRPTestNetwork.router4.port$o[0].channel packetsDiscarded:vector ETV
attr interpolationmode none
attr recordingmode vector
attr source constant1(messageDiscarded)
vector 35 EDVRPTestNetwork.router4.port$o[0].channel throughput:vector ETV
attr recordingmode vector
attr source sumPerDuration(packetBits(messageSent))
attr unit bps
vector 36 EDVRPTestNetwork.router2.port$o[2].channel busy:vector ETV
attr interpolationmode sample-hold
attr recordingmode vector
attr source channelBusy
vector 37 EDVRPTestNetwork.router2.port$o[2].channel utilization:vector ETV
attr recordingmode vector
attr source timeavg(channelBusy)
vector 38 EDVRPTestNetwork.router2.port$o[2].channel packets:vector ETV
attr interpolationmode none
attr recordingmode vector
attr source constant1(messageSent)
vector 39 EDVRPTestNetwork.router2.port$o[2].channel packetBytes:vector ETV
attr interpolationmode none
attr recordingmode vector
attr source packetBytes(messageSent)
attr unit B
vector 40 EDVRPTestNetwork.router2.port$o[2].channel packetsDiscarded:vector ETV
attr interpolationmode none
attr recordingmode vector
attr source constant1(messageDiscarded)
vector 41 EDVRPTestNetwork.router2.port$o[2].channel throughput:vector ETV
attr recordingmode vector
attr source sumPerDuration(packetBits(messageSent))
attr unit bps
vector 42 EDVRPTestNetwork.router5.port$o[0].channel busy:vector ETV
attr interpolationmode sample-hold
attr recordingmode vector
attr source channelBusy
vector 43 EDVRPTestNetwork.router5.port$o[0].channel utilization:vector ETV
attr recordingmode vector
attr source timeavg(channelBusy)
vector 44 EDVRPTestNetwork.router5.port$o[0].channel packets:vector ETV
attr interpolationmode none
attr recordingmode vector
attr source constant1(messageSent)
vector 45 EDVRPTestNetwork.router5.port$o[0].channel packetBytes:vector ETV
attr interpolationmode none
attr recordingmode vector
attr source packetBytes(messageSent)
attr unit B
vector 46 EDVRPTestNetwork.router5.port$o[0].channel packetsDiscarded:vector ETV
attr interpolationmode none
attr recordingmode vector
attr source constant1(messageDiscarded)
vector 47 EDVRPTestNetwork.router5.port$o[0].channel throughput:vector ETV
attr recordingmode vector
attr source sumPerDuration(packetBits(messageSent))
attr unit bps
vector 48 EDVRPTestNetwork.router3.port$o[2].channel busy:vector ETV
attr interpolationmode sample-hold
attr recordingmode vector
attr source channelBusy
vector 49 EDVRPTestNetwork.router3.port$o[2].channel utilization:vector ETV
attr recordingmode vector
attr source timeavg(channelBusy)
vector 50 EDVRPTestNetwork.router3.port$o[2].channel packets:vector ETV
attr interpolationmode none
attr recordingmode vector
attr source constant1(messageSent)
vector 51 EDVRPTestNetwork.router3.port$o[2].channel packetBytes:vector ETV
attr interpolationmode none
attr recordingmode vector
attr source packetBytes(messageSent)
attr unit B
vector 52 EDVRPTestNetwork.router3.port$o[2].channel packetsDiscarded:vector ETV
attr interpolationmode none
attr recordingmode vector
attr source constant1(messageDiscarded)
vector 53 EDVRPTestNetwork.router3.port$o[2].channel throughput:vector ETV
attr recordingmode vector
attr source sumPerDuration(packetBits(messageSent))
attr unit bps
vector 54 EDVRPTestNetwork.router6.port$o[0].channel busy:vector ETV
attr interpolationmode sample-hold
attr recordingmode vector
attr source channelBusy
vector 55 EDVRPTestNetwork.router6.port$o[0].channel utilization:vector ETV
attr recordingmode vector
attr source timeavg(channelBusy)
vector 56 EDVRPTestNetwork.router6.port$o[0].channel packets:vector ETV
attr interpolationmode none
attr recordingmode vector
attr source constant1(messageSent)
vector 57 EDVRPTestNetwork.router6.port$o[0].channel packetBytes:vector ETV
attr interpolationmode none
attr recordingmode vector
attr source packetBytes(messageSent)
attr unit B
vector 58 EDVRPTestNetwork.router6.port$o[0].channel packetsDiscarded:vector ETV
attr interpolationmode none
attr recordingmode vector
attr source constant1(messageDiscarded)
vector 59 EDVRPTestNetwork.router6.port$o[0].channel throughput:vector ETV
attr recordingmode vector
attr source sumPerDuration(packetBits(messageSent))
attr unit bps
vector 60 EDVRPTestNetwork.router5.port$o[1].channel busy:vector ETV
attr interpolationmode sample-hold
attr recordingmode vector
attr source channelBusy
vector 61 EDVRPTestNetwork.router5.port$o[1].channel utilization:vector ETV
attr recordingmode vector
attr source timeavg(channelBusy)
vector 62 EDVRPTestNetwork.router5.port$o[1].channel packets:vector ETV
attr interpolationmode none
attr recordingmode vector
attr source constant1(messageSent)
vector 63 EDVRPTestNetwork.router5.port$o[1].channel packetBytes:vector ETV
attr interpolationmode none
attr recordingmode vector
attr source packetBytes(messageSent)
attr unit B
vector 64 EDVRPTestNetwork.router5.port$o[1].channel packetsDiscarded:vector ETV
attr interpolationmode none
attr recordingmode vector
attr source constant1(messageDiscarded)
vector 65 EDVRPTestNetwork.router5.port$o[1].channel throughput:vector ETV
attr recordingmode vector
attr source sumPerDuration(packetBits(messageSent))
attr unit bps
vector 66 EDVRPTestNetwork.router6.port$o[1].channel busy:vector ETV
attr interpolationmode sample-hold
attr recordingmode vector
attr source channelBusy
vector 67 EDVRPTestNetwork.router6.port$o[1].channel utilization:vector ETV
attr recordingmode vector
attr source timeavg(channelBusy)
vector 68 EDVRPTestNetwork.router6.port$o[1].channel packets:vector ETV
attr interpolationmode none
attr recordingmode vector
attr source constant1(messageSent)
vector 69 EDVRPTestNetwork.router6.port$o[1].channel packetBytes:vector ETV
attr interpolationmode none
attr recordingmode vector
attr source packetBytes(messageSent)
attr unit B
vector 70 EDVRPTestNetwork.router6.port$o[1].channel packetsDiscarded:vector ETV
attr interpolationmode none
attr recordingmode vector
attr source constant1(messageDiscarded)
vector 71 EDVRPTestNetwork.router6.port$o[1].channel throughput:vector ETV
attr recordingmode vector
attr source sumPerDuration(packetBits(messageSent))
attr unit bps
0	0	0	0
0	1	0	0
0	47	0.548813502304	0
0	109	1.032745311292	0
0	187	5.548813502304	0
0	265	10.548813502304	0
0	343	15.548813502304	0
0	421	20.548813502304	0
0	499	25.548813502304	0
0	545	30.548813502304	0
0	600	31.485465105623	0
0	678	35.548813502304	0
0	756	40.548813502304	0
0	834	45.548813502304	0
0	912	50.548813502304	0
0	990	55.548813502304	0
0	1068	60.548813502304	0
0	1146	65.548813502304	0
0	1224	70.548813502304	0
0	1302	75.548813502304	0
0	1380	80.548813502304	0
0	1458	85.548813502304	0
0	1536	90.548813502304	0
0	1614	95.548813502304	0
0	1692	100.548813502304	0
0	1770	105.548813502304	0
0	1848	110.548813502304	0
0	1926	115.548813502304	0
0	2004	120.548813502304	0
0	2082	125.548813502304	0
0	2160	130.548813502304	0
0	2238	135.548813502304	0
0	2316	140.548813502304	0
0	2394	145.548813502304	0
0	2472	150.548813502304	0
0	2550	155.548813502304	0
0	2628	160.548813502304	0
0	2706	165.548813502304	0
0	2784	170.548813502304	0
0	2862	175.548813502304	0
0	2940	180.548813502304	0
0	3018	185.548813502304	0
0	3096	190.548813502304	0
0	3174	195.548813502304	0
1	47	0.548813502304	0
1	109	1.032745311292	0
1	187	5.548813502304	0
1	265	10.548813502304	0
1	343	15.548813502304	0
1	421	20.548813502304	0
1	499	25.548813502304	0
1	545	30.548813502304	0
1	600	31.485465105623	0
1	678	35.548813502304	0
1	756	40.548813502304	0
1	834	45.548813502304	0
1	912	50.548813502304	0
1	990	55.548813502304	0
1	1068	60.548813502304	0
1	1146	65.548813502304	0
1	1224	70.548813502304	0
1	1302	75.548813502304	0
1	1380	80.548813502304	0
1	1458	85.548813502304	0
1	1536	90.548813502304	0
1	1614	95.548813502304	0
1	1692	100.548813502304	0
1	1770	105.548813502304	0
1	1848	110.548813502304	0
1	1926	115.548813502304	0
1	2004	120.548813502304	0
1	2082	125.548813502304	0
1	2160	130.548813502304	0
1	2238	135.548813502304	0
1	2316	140.548813502304	0
1	2394	145.548813502304	0
1	2472	150.548813502304	0
1	2550	155.548813502304	0
1	2628	160.548813502304	0
1	2706	165.548813502304	0
1	2784	170.548813502304	0
1	2862	175.548813502304	0
1	2940	180.548813502304	0
1	3018	185.548813502304	0
1	3096	190.548813502304	0
1	3174	195.548813502304	0
2	0	0	1
2	1	0.548813502304	1
2	47	1.032745311292	1
2	109	5.548813502304	1
2	187	10.548813502304	1
2	265	15.548813502304	1
2	343	20.548813502304	1
2	421	25.548813502304	1
2	499	30.548813502304	1
2	545	31.485465105623	1
2	600	35.548813502304	1
2	678	40.548813502304	1
2	756	45.548813502304	1
2	834	50.548813502304	1
2	912	55.548813502304	1
2	990	60.548813502304	1
2	1068	65.548813502304	1
2	1146	70.548813502304	1
2	1224	75.548813502304	1
2	1302	80.548813502304	1
2	1380	85.548813502304	1
2	1458	90.548813502304	1
2	1536	95.548813502304	1
2	1614	100.548813502304	1
2	1692	105.548813502304	1
2	1770	110.548813502304	1
2	1848	115.548813502304	1
2	1926	120.548813502304	1
2	2004	125.548813502304	1
2	2082	130.548813502304	1
2	2160	135.548813502304	1
2	2238	140.548813502304	1
2	2316	145.548813502304	1
2	2394	150.548813502304	1
2	2472	155.548813502304	1
2	2550	160.548813502304	1
2	2628	165.548813502304	1
2	2706	170.548813502304	1
2	2784	175.548813502304	1
2	2862	180.548813502304	1
2	2940	185.548813502304	1
2	3018	190.548813502304	1
2	3096	195.548813502304	1
3	1	0.548813502304	0
3	47	1.032745311292	0
3	109	5.548813502304	0
3	187	10.548813502304	0
3	265	15.548813502304	0
3	343	20.548813502304	0
3	421	25.548813502304	0
3	499	30.548813502304	0
3	545	31.485465105623	0
3	600	35.548813502304	0
3	678	40.548813502304	0
3	756	45.548813502304	0
3	834	50.548813502304	0
3	912	55.548813502304	0
3	990	60.548813502304	0
3	1068	65.548813502304	0
3	1146	70.548813502304	0
3	1224	75.548813502304	0
3	1302	80.548813502304	0
3	1380	85.548813502304	0
3	1458	90.548813502304	0
3	1536	95.548813502304	0
3	1614	100.548813502304	0
3	1692	105.548813502304	0
3	1770	110.548813502304	0
3	1848	115.548813502304	0
3	1926	120.548813502304	0
3	2004	125.548813502304	0
3	2082	130.548813502304	0
3	2160	135.548813502304	0
3	2238	140.548813502304	0
3	2316	145.548813502304	0
3	2394	150.548813502304	0
3	2472	155.548813502304	0
3	2550	160.548813502304	0
3	2628	165.548813502304	0
3	2706	170.548813502304	0
3	2784	175.548813502304	0
3	2862	180.548813502304	0
3	2940	185.548813502304	0
3	3018	190.548813502304	0
3	3096	195.548813502304	0
4	0	0	1
5	1	0.548813502304	0
5	47	1.032745311292	0
5	109	5.548813502304	0
5	187	10.548813502304	0
5	265	15.548813502304	0
5	343	20.548813502304	0
5	421	25.548813502304	0
5	499	30.548813502304	0
5	545	31.485465105623	0
5	600	35.548813502304	0
5	678	40.548813502304	0
5	756	45.548813502304	0
5	834	50.548813502304	0
5	912	55.548813502304	0
5	990	60.548813502304	0
5	1068	65.548813502304	0
5	1146	70.548813502304	0
5	1224	75.548813502304	0
5	1302	80.548813502304	0
5	1380	85.548813502304	0
5	1458	90.548813502304	0
5	1536	95.548813502304	0
5	1614	100.548813502304	0
5	1692	105.548813502304	0
5	1770	110.548813502304	0
5	1848	115.548813502304	0
5	1926	120.548813502304	0
5	2004	125.548813502304	0
5	2082	130.548813502304	0
5	2160	135.548813502304	0
5	2238	140.548813502304	0
5	2316	145.548813502304	0
5	2394	150.548813502304	0
5	2472	155.548813502304	0
5	2550	160.548813502304	0
5	2628	165.548813502304	0
5	2706	170.548813502304	0
5	2784	175.548813502304	0
5	2862	180.548813502304	0
5	2940	185.548813502304	0
5	3018	190.548813502304	0
5	3096	195.548813502304	0
6	0	0	0
6	3	0	0
6	23	0.592844616389	0
6	111	0.867766773257	0
6	189	5.592844616389	0
6	267	10.592844616389	0
6	345	15.592844616389	0
6	423	20.592844616389	0
6	501	25.592844616389	0
6	529	30.592844616389	0
6	602	31.209062517807	0
6	680	35.592844616389	0
6	758	40.592844616389	0
6	836	45.592844616389	0
6	914	50.592844616389	0
6	992	55.592844616389	0
6	1070	60.592844616389	0
6	1148	65.592844616389	0
6	1226	70.592844616389	0
6	1304	75.592844616389	0
6	1382	80.592844616389	0
6	1460	85.592844616389	0
6	1538	90.592844616389	0
6	1616	95.592844616389	0
6	1694	100.592844616389	0
6	1772	105.592844616389	0
6	1850	110.592844616389	0
6	1928	115.592844616389	0
6	2006	120.592844616389	0
6	2084	125.592844616389	0
6	2162	130.592844616389	0
6	2240	135.592844616389	0
6	2318	140.592844616389	0
6	2396	145.592844616389	0
6	2474	150.592844616389	0
6	2552	155.592844616389	0
6	2630	160.592844616389	0
6	2708	165.592844616389	0
6	2786	170.592844616389	0
6	2864	175.592844616389	0
6	2942	180.592844616389	0
6	3020	185.592844616389	0
6	3098	190.592844616389	0
6	3174	195.592844616389	0
7	23	0.592844616389	0
7	111	0.867766773257	0
7	189	5.592844616389	0
7	267	10.592844616389	0
7	345	15.592844616389	0
7	423	20.592844616389	0
7	501	25.592844616389	0
7	529	30.592844616389	0
7	602	31.209062517807	0
7	680	35.592844616389	0
7	758	40.592844616389	0
7	836	45.592844616389	0
7	914	50.592844616389	0
7	992	55.592844616389	0
7	1070	60.592844616389	0
7	1148	65.592844616389	0
7	1226	70.592844616389	0
7	1304	75.592844616389	0
7	1382	80.592844616389	0
7	1460	85.592844616389	0
7	1538	90.592844616389	0
7	1616	95.592844616389	0
7	1694	100.592844616389	0
7	1772	105.592844616389	0
7	1850	110.592844616389	0
7	1928	115.592844616389	0
7	2006	120.592844616389	0
7	2084	125.592844616389	0
7	2162	130.592844616389	0
7	2240	135.592844616389	0
7	2318	140.592844616389	0
7	2396	145.592844616389	0
7	2474	150.592844616389	0
7	2552	155.592844616389	0
7	2630	160.592844616389	0
7	2708	165.592844616389	0
7	2786	170.592844616389	0
7	2864	175.592844616389	0
7	2942	180.592844616389	0
7	3020	185.592844616389	0
7	3098	190.592844616389	0
7	3174	195.592844616389	0
8	0	0	1
8	3	0.592844616389	1
8	23	0.867766773257	1
8	111	5.592844616389	1
8	189	10.592844616389	1
8	267	15.592844616389	1
8	345	20.592844616389	1
8	423	25.592844616389	1
8	501	30.592844616389	1
8	529	31.209062517807	1
8	602	35.592844616389	1
8	680	40.592844616389	1
8	758	45.592844616389	1
8	836	50.592844616389	1
8	914	55.592844616389	1
8	992	60.592844616389	1
8	1070	65.592844616389	1
8	1148	70.592844616389	1
8	1226	75.592844616389	1
8	1304	80.592844616389	1
8	1382	85.592844616389	1
8	1460	90.592844616389	1
8	1538	95.592844616389	1
8	1616	100.592844616389	1
8	1694	105.592844616389	1
8	1772	110.592844616389	1
8	1850	115.592844616389	1
8	1928	120.592844616389	1
8	2006	125.592844616389	1
8	2084	130.592844616389	1
8	2162	135.592844616389	1
8	2240	140.592844616389	1
8	2318	145.592844616389	1
8	2396	150.592844616389	1
8	2474	155.592844616389	1
8	2552	160.592844616389	1
8	2630	165.592844616389	1
8	2708	170.592844616389	1
8	2786	175.592844616389	1
8	2864	180.592844616389	1
8	2942	185.592844616389	1
8	3020	190.592844616389	1
8	3098	195.592844616389	1
9	3	0.592844616389	0
9	23	0.867766773257	0
9	111	5.592844616389	0
9	189	10.592844616389	0
9	267	15.592844616389	0
9	345	20.592844616389	0
9	423	25.592844616389	0
9	501	30.592844616389	0
9	529	31.209062517807	0
9	602	35.592844616389	0
9	680	40.592844616389	0
9	758	45.592844616389	0
9	836	50.592844616389	0
9	914	55.592844616389	0
9	992	60.592844616389	0
9	1070	65.592844616389	0
9	1148	70.592844616389	0
9	1226	75.592844616389	0
9	1304	80.592844616389	0
9	1382	85.592844616389	0
9	1460	90.592844616389	0
9	1538	95.592844616389	0
9	1616	100.592844616389	0
9	1694	105.592844616389	0
9	1772	110.592844616389	0
9	1850	115.592844616389	0
9	1928	120.592844616389	0
9	2006	125.592844616389	0
9	2084	130.592844616389	0
9	2162	135.592844616389	0
9	2240	140.592844616389	0
9	2318	145.592844616389	0
9	2396	150.592844616389	0
9	2474	155.592844616389	0
9	2552	160.592844616389	0
9	2630	165.592844616389	0
9	2708	170.592844616389	0
9	2786	175.592844616389	0
9	2864	180.592844616389	0
9	2942	185.592844616389	0
9	3020	190.592844616389	0
9	3098	195.592844616389	0
10	0	0	1
11	3	0.592844616389	0
11	23	0.867766773257	0
11	111	5.592844616389	0
11	189	10.592844616389	0
11	267	15.592844616389	0
11	345	20.592844616389	0
11	423	25.592844616389	0
11	501	30.592844616389	0
11	529	31.209062517807	0
11	602	35.592844616389	0
11	680	40.592844616389	0
11	758	45.592844616389	0
11	836	50.592844616389	0
11	914	55.592844616389	0
11	992	60.592844616389	0
11	1070	65.592844616389	0
11	1148	70.592844616389	0
11	1226	75.592844616389	0
11	1304	80.592844616389	0
11	1382	85.592844616389	0
11	1460	90.592844616389	0
11	1538	95.592844616389	0
11	1616	100.592844616389	0
11	1694	105.592844616389	0
11	1772	110.592844616389	0
11	1850	115.592844616389	0
11	1928	120.592844616389	0
11	2006	125.592844616389	0
11	2084	130.592844616389	0
11	2162	135.592844616389	0
11	2240	140.592844616389	0
11	2318	145.592844616389	0
11	2396	150.592844616389	0
11	2474	155.592844616389	0
11	2552	160.592844616389	0
11	2630	165.592844616389	0
11	2708	170.592844616389	0
11	2786	175.592844616389	0
11	2864	180.592844616389	0
11	2942	185.592844616389	0
11	3020	190.592844616389	0
11	3098	195.592844616389	0
12	0	0	0
12	3	0	0
12	23	0.592844616389	0
12	111	0.867766773257	0
12	189	5.592844616389	0
12	267	10.592844616389	0
12	345	15.592844616389	0
12	423	20.592844616389	0
12	501	25.592844616389	0
12	529	30.592844616389	0
12	602	31.209062517807	0
12	680	35.592844616389	0
12	758	40.592844616389	0
12	836	45.592844616389	0
12	914	50.592844616389	0
12	992	55.592844616389	0
12	1070	60.592844616389	0
12	1148	65.592844616389	0
12	1226	70.592844616389	0
12	1304	75.592844616389	0
12	1382	80.592844616389	0
12	1460	85.592844616389	0
12	1538	90.592844616389	0
12	1616	95.592844616389	0
12	1694	100.592844616389	0
12	1772	105.592844616389	0
12	1850	110.592844616389	0
12	1928	115.592844616389	0
12	2006	120.592844616389	0
12	2084	125.592844616389	0
12	2162	130.592844616389	0
12	2240	135.592844616389	0
12	2318	140.592844616389	0
12	2396	145.592844616389	0
12	2474	150.592844616389	0
12	2552	155.592844616389	0
12	2630	160.592844616389	0
12	2708	165.592844616389	0
12	2786	170.592844616389	0
12	2864	175.592844616389	0
12	2942	180.592844616389	0
12	3020	185.592844616389	0
12	3098	190.592844616389	0
12	3174	195.592844616389	0
13	23	0.592844616389	0
13	111	0.867766773257	0
13	189	5.592844616389	0
13	267	10.592844616389	0
13	345	15.592844616389	0
13	423	20.592844616389	0
13	501	25.592844616389	0
13	529	30.592844616389	0
13	602	31.209062517807	0
13	680	35.592844616389	0
13	758	40.592844616389	0
13	836	45.592844616389	0
13	914	50.592844616389	0
13	992	55.592844616389	0
13	1070	60.592844616389	0
13	1148	65.592844616389	0
13	1226	70.592844616389	0
13	1304	75.592844616389	0
13	1382	80.592844616389	0
13	1460	85.592844616389	0
13	1538	90.592844616389	0
13	1616	95.592844616389	0
13	1694	100.592844616389	0
13	1772	105.592844616389	0
13	1850	110.592844616389	0
13	1928	115.592844616389	0
13	2006	120.592844616389	0
13	2084	125.592844616389	0
13	2162	130.592844616389	0
13	2240	135.592844616389	0
13	2318	140.592844616389	0
13	2396	145.592844616389	0
13	2474	150.592844616389	0
13	2552	155.592844616389	0
13	2630	160.592844616389	0
13	2708	165.592844616389	0
13	2786	170.592844616389	0
13	2864	175.592844616389	0
13	2942	180.592844616389	0
13	3020	185.592844616389	0
13	3098	190.592844616389	0
13	3174	195.592844616389	0
14	0	0	1
14	3	0.592844616389	1
14	23	0.867766773257	1
14	111	5.592844616389	1
14	189	10.592844616389	1
14	267	15.592844616389	1
14	345	20.592844616389	1
14	423	25.592844616389	1
14	501	30.592844616389	1
14	529	31.209062517807	1
14	602	35.592844616389	1
14	680	40.592844616389	1
14	758	45.592844616389	1
14	836	50.592844616389	1
14	914	55.592844616389	1
14	992	60.592844616389	1
14	1070	65.592844616389	1
14	1148	70.592844616389	1
14	1226	75.592844616389	1
14	1304	80.592844616389	1
14	1382	85.592844616389	1
14	1460	90.592844616389	1
14	1538	95.592844616389	1
14	1616	100.592844616389	1
14	1694	105.592844616389	1
14	1772	110.592844616389	1
14	1850	115.592844616389	1
14	1928	120.592844616389	1
14	2006	125.592844616389	1
14	2084	130.592844616389	1
14	2162	135.592844616389	1
14	2240	140.592844616389	1
14	2318	145.592844616389	1
14	2396	150.592844616389	1
14	2474	155.592844616389	1
14	2552	160.592844616389	1
14	2630	165.592844616389	1
14	2708	170.592844616389	1
14	2786	175.592844616389	1
14	2864	180.592844616389	1
14	2942	185.592844616389	1
14	3020	190.592844616389	1
14	3098	195.592844616389	1
15	3	0.592844616389	0
15	23	0.867766773257	0
15	111	5.592844616389	0
15	189	10.592844616389	0
15	267	15.592844616389	0
15	345	20.592844616389	0
15	423	25.592844616389	0
15	501	30.592844616389	0
15	529	31.209062517807	0
15	602	35.592844616389	0
15	680	40.592844616389	0
15	758	45.592844616389	0
15	836	50.592844616389	0
15	914	55.592844616389	0
15	992	60.592844616389	0
15	1070	65.592844616389	0
15	1148	70.592844616389	0
15	1226	75.592844616389	0
15	1304	80.592844616389	0
15	1382	85.592844616389	0
15	1460	90.592844616389	0
15	1538	95.592844616389	0
15	1616	100.592844616389	0
15	1694	105.592844616389	0
15	1772	110.592844616389	0
15	1850	115.592844616389	0
15	1928	120.592844616389	0
15	2006	125.592844616389	0
15	2084	130.592844616389	0
15	2162	135.592844616389	0
15	2240	140.592844616389	0
15	2318	145.592844616389	0
15	2396	150.592844616389	0
15	2474	155.592844616389	0
15	2552	160.592844616389	0
15	2630	165.592844616389	0
15	2708	170.592844616389	0
15	2786	175.592844616389	0
15	2864	180.592844616389	0
15	2942	185.592844616389	0
15	3020	190.592844616389	0
15	3098	195.592844616389	0
16	0	0	1
17	3	0.592844616389	0
17	23	0.867766773257	0
17	111	5.592844616389	0
17	189	10.592844616389	0
17	267	15.592844616389	0
17	345	20.592844616389	0
17	423	25.592844616389	0
17	501	30.592844616389	0
17	529	31.209062517807	0
17	602	35.592844616389	0
17	680	40.592844616389	0
17	758	45.592844616389	0
17	836	50.592844616389	0
17	914	55.592844616389	0
17	992	60.592844616389	0
17	1070	65.592844616389	0
17	1148	70.592844616389	0
17	1226	75.592844616389	0
17	1304	80.592844616389	0
17	1382	85.592844616389	0
17	1460	90.592844616389	0
17	1538	95.592844616389	0
17	1616	100.592844616389	0
17	1694	105.592844616389	0
17	1772	110.592844616389	0
17	1850	115.592844616389	0
17	1928	120.592844616389	0
17	2006	125.592844616389	0
17	2084	130.592844616389	0
17	2162	135.592844616389	0
17	2240	140.592844616389	0
17	2318	145.592844616389	0
17	2396	150.592844616389	0
17	2474	155.592844616389	0
17	2552	160.592844616389	0
17	2630	165.592844616389	0
17	2708	170.592844616389	0
17	2786	175.592844616389	0
17	2864	180.592844616389	0
17	2942	185.592844616389	0
17	3020	190.592844616389	0
17	3098	195.592844616389	0
18	0	0	0
18	10	0	0
18	19	0.715189364972	0
18	49	0.863306535104	0
18	118	1.143801657248	0
18	196	5.715189364972	0
18	274	10.715189364972	0
18	352	15.715189364972	0
18	430	20.715189364972	0
18	508	25.715189364972	0
18	533	30.715189364972	0
18	609	31.253376608528	0
18	687	35.715189364972	0
18	765	40.715189364972	0
18	843	45.715189364972	0
18	921	50.715189364972	0
18	999	55.715189364972	0
18	1077	60.715189364972	0
18	1155	65.715189364972	0
18	1233	70.715189364972	0
18	1311	75.715189364972	0
18	1389	80.715189364972	0
18	1467	85.715189364972	0
18	1545	90.715189364972	0
18	1623	95.715189364972	0
18	1701	100.715189364972	0
18	1779	105.715189364972	0
18	1857	110.715189364972	0
18	1935	115.715189364972	0
18	2013	120.715189364972	0
18	2091	125.715189364972	0
18	2169	130.715189364972	0
18	2247	135.715189364972	0