version 3
run EDVRPComparisonEDVRP-1-20250705-23:45:43-97481
attr configname EDVRPComparisonEDVRP
attr datetime 20250705-23:45:43
attr datetimef 20250705-234543
attr experiment EDVRPComparisonEDVRP
attr inifile omnetpp.ini
attr iterationvars ""
attr iterationvarsd ""
attr iterationvarsf ""
attr measurement ""
attr network edvrp.simulations.EDVRPTestNetwork
attr processid 97481
attr repetition 1
attr replication #1
attr resultdir results
attr runnumber 1
attr seedset 1
config description "EDVRP behavior on comparison topology"
config network edvrp.simulations.EDVRPTestNetwork
config sim-time-limit 200s
config repeat 5
config cmdenv-express-mode false
config cmdenv-autoflush true
config **.router*.**.result-recording-modes +vector,+histogram,+stats
config network edvrp.simulations.EDVRPTestNetwork
config sim-time-limit 300s
config seed-set 1
config num-rngs 3
config rng-class cMersenneTwister
config output-scalar-file results/EDVRPComparisonEDVRP-1.sca
config output-vector-file results/EDVRPComparisonEDVRP-1.vec
config eventlog-file results/EDVRPComparisonEDVRP-1.elog
config **.scalar-recording true
config **.vector-recording true
config **.router*.convergenceTimeSignal.result-recording-modes +histogram,+stats
config **.router*.routingTableSizeSignal.result-recording-modes +vector,+stats
config **.router*.messageCountSignal.result-recording-modes +count,+sum
config debug-on-errors true
config print-undisposed true

vector 0 EDVRPTestNetwork.router1.port$o[0].channel busy:vector ETV
attr interpolationmode sample-hold
attr recordingmode vector
attr source channelBusy
vector 1 EDVRPTestNetwork.router1.port$o[0].channel utilization:vector ETV
attr recordingmode vector
attr source timeavg(channelBusy)
vector 2 EDVRPTestNetwork.router1.port$o[0].channel packets:vector ETV
attr interpolationmode none
attr recordingmode vector
attr source constant1(messageSent)
vector 3 EDVRPTestNetwork.router1.port$o[0].channel packetBytes:vector ETV
attr interpolationmode none
attr recordingmode vector
attr source packetBytes(messageSent)
attr unit B
vector 4 EDVRPTestNetwork.router1.port$o[0].channel packetsDiscarded:vector ETV
attr interpolationmode none
attr recordingmode vector
attr source constant1(messageDiscarded)
vector 5 EDVRPTestNetwork.router1.port$o[0].channel throughput:vector ETV
attr recordingmode vector
attr source sumPerDuration(packetBits(messageSent))
attr unit bps
vector 6 EDVRPTestNetwork.router2.port$o[0].channel busy:vector ETV
attr interpolationmode sample-hold
attr recordingmode vector
attr source channelBusy
vector 7 EDVRPTestNetwork.router2.port$o[0].channel utilization:vector ETV
attr recordingmode vector
attr source timeavg(channelBusy)
vector 8 EDVRPTestNetwork.router2.port$o[0].channel packets:vector ETV
attr interpolationmode none
attr recordingmode vector
attr source constant1(messageSent)
vector 9 EDVRPTestNetwork.router2.port$o[0].channel packetBytes:vector ETV
attr interpolationmode none
attr recordingmode vector
attr source packetBytes(messageSent)
attr unit B
vector 10 EDVRPTestNetwork.router2.port$o[0].channel packetsDiscarded:vector ETV
attr interpolationmode none
attr recordingmode vector
attr source constant1(messageDiscarded)
vector 11 EDVRPTestNetwork.router2.port$o[0].channel throughput:vector ETV
attr recordingmode vector
attr source sumPerDuration(packetBits(messageSent))
attr unit bps
vector 12 EDVRPTestNetwork.router2.port$o[1].channel busy:vector ETV
attr interpolationmode sample-hold
attr recordingmode vector
attr source channelBusy
vector 13 EDVRPTestNetwork.router2.port$o[1].channel utilization:vector ETV
attr recordingmode vector
attr source timeavg(channelBusy)
vector 14 EDVRPTestNetwork.router2.port$o[1].channel packets:vector ETV
attr interpolationmode none
attr recordingmode vector
attr source constant1(messageSent)
vector 15 EDVRPTestNetwork.router2.port$o[1].channel packetBytes:vector ETV
attr interpolationmode none
attr recordingmode vector
attr source packetBytes(messageSent)
attr unit B
vector 16 EDVRPTestNetwork.router2.port$o[1].channel packetsDiscarded:vector ETV
attr interpolationmode none
attr recordingmode vector
attr source constant1(messageDiscarded)
vector 17 EDVRPTestNetwork.router2.port$o[1].channel throughput:vector ETV
attr recordingmode vector
attr source sumPerDuration(packetBits(messageSent))
attr unit bps
vector 18 EDVRPTestNetwork.router3.port$o[0].channel busy:vector ETV
attr interpolationmode sample-hold
attr recordingmode vector
attr source channelBusy
vector 19 EDVRPTestNetwork.router3.port$o[0].channel utilization:vector ETV
attr recordingmode vector
attr source timeavg(channelBusy)
vector 20 EDVRPTestNetwork.router3.port$o[0].channel packets:vector ETV
attr interpolationmode none
attr recordingmode vector
attr source constant1(messageSent)
vector 21 EDVRPTestNetwork.router3.port$o[0].channel packetBytes:vector ETV
attr interpolationmode none
attr recordingmode vector
attr source packetBytes(messageSent)
attr unit B
vector 22 EDVRPTestNetwork.router3.port$o[0].channel packetsDiscarded:vector ETV
attr interpolationmode none
attr recordingmode vector
attr source constant1(messageDiscarded)
vector 23 EDVRPTestNetwork.router3.port$o[0].channel throughput:vector ETV
attr recordingmode vector
attr source sumPerDuration(packetBits(messageSent))
attr unit bps
vector 24 EDVRPTestNetwork.router3.port$o[1].channel busy:vector ETV
attr interpolationmode sample-hold
attr recordingmode vector
attr source channelBusy
vector 25 EDVRPTestNetwork.router3.port$o[1].channel utilization:vector ETV
attr recordingmode vector
attr source timeavg(channelBusy)
vector 26 EDVRPTestNetwork.router3.port$o[1].channel packets:vector ETV
attr interpolationmode none
attr recordingmode vector
attr source constant1(messageSent)
vector 27 EDVRPTestNetwork.router3.port$o[1].channel packetBytes:vector ETV
attr interpolationmode none
attr recordingmode vector
attr source packetBytes(messageSent)
attr unit B
vector 28 EDVRPTestNetwork.router3.port$o[1].channel packetsDiscarded:vector ETV
attr interpolationmode none
attr recordingmode vector
attr source constant1(messageDiscarded)
vector 29 EDVRPTestNetwork.router3.port$o[1].channel throughput:vector ETV
attr recordingmode vector
attr source sumPerDuration(packetBits(messageSent))
attr unit bps
vector 30 EDVRPTestNetwork.router4.port$o[0].channel busy:vector ETV
attr interpolationmode sample-hold
attr recordingmode vector
attr source channelBusy
vector 31 EDVRPTestNetwork.router4.port$o[0].channel utilization:vector ETV
attr recordingmode vector
attr source timeavg(channelBusy)
vector 32 EDVRPTestNetwork.router4.port$o[0].channel packets:vector ETV
attr interpolationmode none
attr recordingmode vector
attr source constant1(messageSent)
vector 33 EDVRPTestNetwork.router4.port$o[0].channel packetBytes:vector ETV
attr interpolationmode none
attr recordingmode vector
attr source packetBytes(messageSent)
attr unit B
vector 34 EDVRPTestNetwork.router4.port$o[0].channel packetsDiscarded:vector ETV
attr interpolationmode none
attr recordingmode vector
attr source constant1(messageDiscarded)
vector 35 EDVRPTestNetwork.router4.port$o[0].channel throughput:vector ETV
attr recordingmode vector
attr source sumPerDuration(packetBits(messageSent))
attr unit bps
vector 36 EDVRPTestNetwork.router2.port$o[2].channel busy:vector ETV
attr interpolationmode sample-hold
attr recordingmode vector
attr source channelBusy
vector 37 EDVRPTestNetwork.router2.port$o[2].channel utilization:vector ETV
attr recordingmode vector
attr source timeavg(channelBusy)
vector 38 EDVRPTestNetwork.router2.port$o[2].channel packets:vector ETV
attr interpolationmode none
attr recordingmode vector
attr source constant1(messageSent)
vector 39 EDVRPTestNetwork.router2.port$o[2].channel packetBytes:vector ETV
attr interpolationmode none
attr recordingmode vector
attr source packetBytes(messageSent)
attr unit B
vector 40 EDVRPTestNetwork.router2.port$o[2].channel packetsDiscarded:vector ETV
attr interpolationmode none
attr recordingmode vector
attr source constant1(messageDiscarded)
vector 41 EDVRPTestNetwork.router2.port$o[2].channel throughput:vector ETV
attr recordingmode vector
attr source sumPerDuration(packetBits(messageSent))
attr unit bps
vector 42 EDVRPTestNetwork.router5.port$o[0].channel busy:vector ETV
attr interpolationmode sample-hold
attr recordingmode vector
attr source channelBusy
vector 43 EDVRPTestNetwork.router5.port$o[0].channel utilization:vector ETV
attr recordingmode vector
attr source timeavg(channelBusy)
vector 44 EDVRPTestNetwork.router5.port$o[0].channel packets:vector ETV
attr interpolationmode none
attr recordingmode vector
attr source constant1(messageSent)
vector 45 EDVRPTestNetwork.router5.port$o[0].channel packetBytes:vector ETV
attr interpolationmode none
attr recordingmode vector
attr source packetBytes(messageSent)
attr unit B
vector 46 EDVRPTestNetwork.router5.port$o[0].channel packetsDiscarded:vector ETV
attr interpolationmode none
attr recordingmode vector
attr source constant1(messageDiscarded)
vector 47 EDVRPTestNetwork.router5.port$o[0].channel throughput:vector ETV
attr recordingmode vector
attr source sumPerDuration(packetBits(messageSent))
attr unit bps
vector 48 EDVRPTestNetwork.router3.port$o[2].channel busy:vector ETV
attr interpolationmode sample-hold
attr recordingmode vector
attr source channelBusy
vector 49 EDVRPTestNetwork.router3.port$o[2].channel utilization:vector ETV
attr recordingmode vector
attr source timeavg(channelBusy)
vector 50 EDVRPTestNetwork.router3.port$o[2].channel packets:vector ETV
attr interpolationmode none
attr recordingmode vector
attr source constant1(messageSent)
vector 51 EDVRPTestNetwork.router3.port$o[2].channel packetBytes:vector ETV
attr interpolationmode none
attr recordingmode vector
attr source packetBytes(messageSent)
attr unit B
vector 52 EDVRPTestNetwork.router3.port$o[2].channel packetsDiscarded:vector ETV
attr interpolationmode none
attr recordingmode vector
attr source constant1(messageDiscarded)
vector 53 EDVRPTestNetwork.router3.port$o[2].channel throughput:vector ETV
attr recordingmode vector
attr source sumPerDuration(packetBits(messageSent))
attr unit bps
vector 54 EDVRPTestNetwork.router6.port$o[0].channel busy:vector ETV
attr interpolationmode sample-hold
attr recordingmode vector
attr source channelBusy
vector 55 EDVRPTestNetwork.router6.port$o[0].channel utilization:vector ETV
attr recordingmode vector
attr source timeavg(channelBusy)
vector 56 EDVRPTestNetwork.router6.port$o[0].channel packets:vector ETV
attr interpolationmode none
attr recordingmode vector
attr source constant1(messageSent)
vector 57 EDVRPTestNetwork.router6.port$o[0].channel packetBytes:vector ETV
attr interpolationmode none
attr recordingmode vector
attr source packetBytes(messageSent)
attr unit B
vector 58 EDVRPTestNetwork.router6.port$o[0].channel packetsDiscarded:vector ETV
attr interpolationmode none
attr recordingmode vector
attr source constant1(messageDiscarded)
vector 59 EDVRPTestNetwork.router6.port$o[0].channel throughput:vector ETV
attr recordingmode vector
attr source sumPerDuration(packetBits(messageSent))
attr unit bps
vector 60 EDVRPTestNetwork.router5.port$o[1].channel busy:vector ETV
attr interpolationmode sample-hold
attr recordingmode vector
attr source channelBusy
vector 61 EDVRPTestNetwork.router5.port$o[1].channel utilization:vector ETV
attr recordingmode vector
attr source timeavg(channelBusy)
vector 62 EDVRPTestNetwork.router5.port$o[1].channel packets:vector ETV
attr interpolationmode none
attr recordingmode vector
attr source constant1(messageSent)
vector 63 EDVRPTestNetwork.router5.port$o[1].channel packetBytes:vector ETV
attr interpolationmode none
attr recordingmode vector
attr source packetBytes(messageSent)
attr unit B
vector 64 EDVRPTestNetwork.router5.port$o[1].channel packetsDiscarded:vector ETV
attr interpolationmode none
attr recordingmode vector
attr source constant1(messageDiscarded)
vector 65 EDVRPTestNetwork.router5.port$o[1].channel throughput:vector ETV
attr recordingmode vector
attr source sumPerDuration(packetBits(messageSent))
attr unit bps
vector 66 EDVRPTestNetwork.router6.port$o[1].channel busy:vector ETV
attr interpolationmode sample-hold
attr recordingmode vector
attr source channelBusy
vector 67 EDVRPTestNetwork.router6.port$o[1].channel utilization:vector ETV
attr recordingmode vector
attr source timeavg(channelBusy)
vector 68 EDVRPTestNetwork.router6.port$o[1].channel packets:vector ETV
attr interpolationmode none
attr recordingmode vector
attr source constant1(messageSent)
vector 69 EDVRPTestNetwork.router6.port$o[1].channel packetBytes:vector ETV
attr interpolationmode none
attr recordingmode vector
attr source packetBytes(messageSent)
attr unit B
vector 70 EDVRPTestNetwork.router6.port$o[1].channel packetsDiscarded:vector ETV
attr interpolationmode none
attr recordingmode vector
attr source constant1(messageDiscarded)
vector 71 EDVRPTestNetwork.router6.port$o[1].channel throughput:vector ETV
attr recordingmode vector
attr source sumPerDuration(packetBits(messageSent))
attr unit bps
0	0	0	0
0	11	0	0
0	19	0.376055920705	0
0	38	0.550797904376	0
0	66	0.871674275067	0
0	131	1.189690214761	0
0	209	5.550797904376	0
0	287	10.550797904376	0
0	365	15.550797904376	0
0	443	20.550797904376	0
0	521	25.550797904376	0
0	541	30.550797904376	0
0	571	31.15814805897	0
0	622	32.241562029161	0
0	700	35.550797904376	0
0	778	40.550797904376	0
0	856	45.550797904376	0
0	934	50.550797904376	0
0	1012	55.550797904376	0
0	1090	60.550797904376	0
0	1168	65.550797904376	0
0	1246	70.550797904376	0
0	1324	75.550797904376	0
0	1402	80.550797904376	0
0	1480	85.550797904376	0
0	1558	90.550797904376	0
0	1636	95.550797904376	0
0	1714	100.550797904376	0
0	1792	105.550797904376	0
0	1870	110.550797904376	0
0	1948	115.550797904376	0
0	2026	120.550797904376	0
0	2104	125.550797904376	0
0	2182	130.550797904376	0
0	2260	135.550797904376	0
0	2338	140.550797904376	0
0	2416	145.550797904376	0
0	2494	150.550797904376	0
0	2572	155.550797904376	0
0	2650	160.550797904376	0
0	2728	165.550797904376	0
0	2806	170.550797904376	0
0	2884	175.550797904376	0
0	2962	180.550797904376	0
0	3040	185.550797904376	0
0	3118	190.550797904376	0
0	3186	195.550797904376	0
1	19	0.376055920705	0
1	38	0.550797904376	0
1	66	0.871674275067	0
1	131	1.189690214761	0
1	209	5.550797904376	0
1	287	10.550797904376	0
1	365	15.550797904376	0
1	443	20.550797904376	0
1	521	25.550797904376	0
1	541	30.550797904376	0
1	571	31.15814805897	0
1	622	32.241562029161	0
1	700	35.550797904376	0
1	778	40.550797904376	0
1	856	45.550797904376	0
1	934	50.550797904376	0
1	1012	55.550797904376	0
1	1090	60.550797904376	0
1	1168	65.550797904376	0
1	1246	70.550797904376	0
1	1324	75.550797904376	0
1	1402	80.550797904376	0
1	1480	85.550797904376	0
1	1558	90.550797904376	0
1	1636	95.550797904376	0
1	1714	100.550797904376	0
1	1792	105.550797904376	0
1	1870	110.550797904376	0
1	1948	115.550797904376	0
1	2026	120.550797904376	0
1	2104	125.550797904376	0
1	2182	130.550797904376	0
1	2260	135.550797904376	0
1	2338	140.550797904376	0
1	2416	145.550797904376	0
1	2494	150.550797904376	0
1	2572	155.550797904376	0
1	2650	160.550797904376	0
1	2728	165.550797904376	0
1	2806	170.550797904376	0
1	2884	175.550797904376	0
1	2962	180.550797904376	0
1	3040	185.550797904376	0
1	3118	190.550797904376	0
1	3186	195.550797904376	0
2	0	0	1
2	11	0.376055920705	1
2	19	0.550797904376	1
2	38	0.871674275067	1
2	66	1.189690214761	1
2	131	5.550797904376	1
2	209	10.550797904376	1
2	287	15.550797904376	1
2	365	20.550797904376	1
2	443	25.550797904376	1
2	521	30.550797904376	1
2	541	31.15814805897	1
2	571	32.241562029161	1
2	622	35.550797904376	1
2	700	40.550797904376	1
2	778	45.550797904376	1
2	856	50.550797904376	1
2	934	55.550797904376	1
2	1012	60.550797904376	1
2	1090	65.550797904376	1
2	1168	70.550797904376	1
2	1246	75.550797904376	1
2	1324	80.550797904376	1
2	1402	85.550797904376	1
2	1480	90.550797904376	1
2	1558	95.550797904376	1
2	1636	100.550797904376	1
2	1714	105.550797904376	1
2	1792	110.550797904376	1
2	1870	115.550797904376	1
2	1948	120.550797904376	1
2	2026	125.550797904376	1
2	2104	130.550797904376	1
2	2182	135.550797904376	1
2	2260	140.550797904376	1
2	2338	145.550797904376	1
2	2416	150.550797904376	1
2	2494	155.550797904376	1
2	2572	160.550797904376	1
2	2650	165.550797904376	1
2	2728	170.550797904376	1
2	2806	175.550797904376	1
2	2884	180.550797904376	1
2	2962	185.550797904376	1
2	3040	190.550797904376	1
2	3118	195.550797904376	1
3	11	0.376055920705	0
3	19	0.550797904376	0
3	38	0.871674275067	0
3	66	1.189690214761	0
3	131	5.550797904376	0
3	209	10.550797904376	0
3	287	15.550797904376	0
3	365	20.550797904376	0
3	443	25.550797904376	0
3	521	30.550797904376	0
3	541	31.15814805897	0
3	571	32.241562029161	0
3	622	35.550797904376	0
3	700	40.550797904376	0
3	778	45.550797904376	0
3	856	50.550797904376	0
3	934	55.550797904376	0
3	1012	60.550797904376	0
3	1090	65.550797904376	0
3	1168	70.550797904376	0
3	1246	75.550797904376	0
3	1324	80.550797904376	0
3	1402	85.550797904376	0
3	1480	90.550797904376	0
3	1558	95.550797904376	0
3	1636	100.550797904376	0
3	1714	105.550797904376	0
3	1792	110.550797904376	0
3	1870	115.550797904376	0
3	1948	120.550797904376	0
3	2026	125.550797904376	0
3	2104	130.550797904376	0
3	2182	135.550797904376	0
3	2260	140.550797904376	0
3	2338	145.550797904376	0
3	2416	150.550797904376	0
3	2494	155.550797904376	0
3	2572	160.550797904376	0
3	2650	165.550797904376	0
3	2728	170.550797904376	0
3	2806	175.550797904376	0
3	2884	180.550797904376	0
3	2962	185.550797904376	0
3	3040	190.550797904376	0
3	3118	195.550797904376	0
4	0	0	1
5	11	0.376055920705	0
5	19	0.550797904376	0
5	38	0.871674275067	0
5	66	1.189690214761	0
5	131	5.550797904376	0
5	209	10.550797904376	0
5	287	15.550797904376	0
5	365	20.550797904376	0
5	443	25.550797904376	0
5	521	30.550797904376	0
5	541	31.15814805897	0
5	571	32.241562029161	0
5	622	35.550797904376	0
5	700	40.550797904376	0
5	778	45.550797904376	0
5	856	50.550797904376	0
5	934	55.550797904376	0
5	1012	60.550797904376	0
5	1090	65.550797904376	0
5	1168	70.550797904376	0
5	1246	75.550797904376	0
5	1324	80.550797904376	0
5	1402	85.550797904376	0
5	1480	90.550797904376	0
5	1558	95.550797904376	0
5	1636	100.550797904376	0
5	1714	105.550797904376	0
5	1792	110.550797904376	0
5	1870	115.550797904376	0
5	1948	120.550797904376	0
5	2026	125.550797904376	0
5	2104	130.550797904376	0
5	2182	135.550797904376	0
5	2260	140.550797904376	0
5	2338	145.550797904376	0
5	2416	150.550797904376	0
5	2494	155.550797904376	0
5	2572	160.550797904376	0
5	2650	165.550797904376	0
5	2728	170.550797904376	0
5	2806	175.550797904376	0
5	2884	180.550797904376	0
5	2962	185.550797904376	0
5	3040	190.550797904376	0
5	3118	195.550797904376	0
6	0	0	0
6	1	0	0
6	27	0.070724880323	0
6	62	0.754421980046	0
6	121	1.076739729725	0
6	199	5.070724880323	0
6	277	10.070724880323	0
6	355	15.070724880323	0
6	433	20.070724880323	0
6	511	25.070724880323	0
6	553	30.070724880323	0
6	612	31.282733289059	0
6	690	35.070724880323	0
6	768	40.070724880323	0
6	846	45.070724880323	0
6	924	50.070724880323	0
6	1002	55.070724880323	0
6	1080	60.070724880323	0
6	1158	65.070724880323	0
6	1236	70.070724880323	0
6	1314	75.070724880323	0
6	1392	80.070724880323	0
6	1470	85.070724880323	0
6	1548	90.070724880323	0
6	1626	95.070724880323	0
6	1704	100.070724880323	0
6	1782	105.070724880323	0
6	1860	110.070724880323	0
6	1938	115.070724880323	0
6	2016	120.070724880323	0
6	2094	125.070724880323	0
6	2172	130.070724880323	0
6	2250	135.070724880323	0
6	2328	140.070724880323	0
6	2406	145.070724880323	0
6	2484	150.070724880323	0
6	2562	155.070724880323	0
6	2640	160.070724880323	0
6	2718	165.070724880323	0
6	2796	170.070724880323	0
6	2874	175.070724880323	0
6	2952	180.070724880323	0
6	3030	185.070724880323	0
6	3108	190.070724880323	0
6	3186	195.070724880323	0
7	27	0.070724880323	0
7	62	0.754421980046	0
7	121	1.076739729725	0
7	199	5.070724880323	0
7	277	10.070724880323	0
7	355	15.070724880323	0
7	433	20.070724880323	0
7	511	25.070724880323	0
7	553	30.070724880323	0
7	612	31.282733289059	0
7	690	35.070724880323	0
7	768	40.070724880323	0
7	846	45.070724880323	0
7	924	50.070724880323	0
7	1002	55.070724880323	0
7	1080	60.070724880323	0
7	1158	65.070724880323	0
7	1236	70.070724880323	0
7	1314	75.070724880323	0
7	1392	80.070724880323	0
7	1470	85.070724880323	0
7	1548	90.070724880323	0
7	1626	95.070724880323	0
7	1704	100.070724880323	0
7	1782	105.070724880323	0
7	1860	110.070724880323	0
7	1938	115.070724880323	0
7	2016	120.070724880323	0
7	2094	125.070724880323	0
7	2172	130.070724880323	0
7	2250	135.070724880323	0
7	2328	140.070724880323	0
7	2406	145.070724880323	0
7	2484	150.070724880323	0
7	2562	155.070724880323	0
7	2640	160.070724880323	0
7	2718	165.070724880323	0
7	2796	170.070724880323	0
7	2874	175.070724880323	0
7	2952	180.070724880323	0
7	3030	185.070724880323	0
7	3108	190.070724880323	0
7	3186	195.070724880323	0
8	0	0	1
8	1	0.070724880323	1
8	27	0.754421980046	1
8	62	1.076739729725	1
8	121	5.070724880323	1
8	199	10.070724880323	1
8	277	15.070724880323	1
8	355	20.070724880323	1
8	433	25.070724880323	1
8	511	30.070724880323	1
8	553	31.282733289059	1
8	612	35.070724880323	1
8	690	40.070724880323	1
8	768	45.070724880323	1
8	846	50.070724880323	1
8	924	55.070724880323	1
8	1002	60.070724880323	1
8	1080	65.070724880323	1
8	1158	70.070724880323	1
8	1236	75.070724880323	1
8	1314	80.070724880323	1
8	1392	85.070724880323	1
8	1470	90.070724880323	1
8	1548	95.070724880323	1
8	1626	100.070724880323	1
8	1704	105.070724880323	1
8	1782	110.070724880323	1
8	1860	115.070724880323	1
8	1938	120.070724880323	1
8	2016	125.070724880323	1
8	2094	130.070724880323	1
8	2172	135.070724880323	1
8	2250	140.070724880323	1
8	2328	145.070724880323	1
8	2406	150.070724880323	1
8	2484	155.070724880323	1
8	2562	160.070724880323	1
8	2640	165.070724880323	1
8	2718	170.070724880323	1
8	2796	175.070724880323	1
8	2874	180.070724880323	1
8	2952	185.070724880323	1
8	3030	190.070724880323	1
8	3108	195.070724880323	1
9	1	0.070724880323	0
9	27	0.754421980046	0
9	62	1.076739729725	0
9	121	5.070724880323	0
9	199	10.070724880323	0
9	277	15.070724880323	0
9	355	20.070724880323	0
9	433	25.070724880323	0
9	511	30.070724880323	0
9	553	31.282733289059	0
9	612	35.070724880323	0
9	690	40.070724880323	0
9	768	45.070724880323	0
9	846	50.070724880323	0
9	924	55.070724880323	0
9	1002	60.070724880323	0
9	1080	65.070724880323	0
9	1158	70.070724880323	0
9	1236	75.070724880323	0
9	1314	80.070724880323	0
9	1392	85.070724880323	0
9	1470	90.070724880323	0
9	1548	95.070724880323	0
9	1626	100.070724880323	0
9	1704	105.070724880323	0
9	1782	110.070724880323	0
9	1860	115.070724880323	0
9	1938	120.070724880323	0
9	2016	125.070724880323	0
9	2094	130.070724880323	0
9	2172	135.070724880323	0
9	2250	140.070724880323	0
9	2328	145.070724880323	0
9	2406	150.070724880323	0
9	2484	155.070724880323	0
9	2562	160.070724880323	0
9	2640	165.070724880323	0
9	2718	170.070724880323	0
9	2796	175.070724880323	0
9	2874	180.070724880323	0
9	2952	185.070724880323	0
9	3030	190.070724880323	0
9	3108	195.070724880323	0
10	0	0	1
11	1	0.070724880323	0
11	27	0.754421980046	0
11	62	1.076739729725	0
11	121	5.070724880323	0
11	199	10.070724880323	0
11	277	15.070724880323	0
11	355	20.070724880323	0
11	433	25.070724880323	0
11	511	30.070724880323	0
11	553	31.282733289059	0
11	612	35.070724880323	0
11	690	40.070724880323	0
11	768	45.070724880323	0
11	846	50.070724880323	0
11	924	55.070724880323	0
11	1002	60.070724880323	0
11	1080	65.070724880323	0
11	1158	70.070724880323	0
11	1236	75.070724880323	0
11	1314	80.070724880323	0
11	1392	85.070724880323	0
11	1470	90.070724880323	0
11	1548	95.070724880323	0
11	1626	100.070724880323	0
11	1704	105.070724880323	0
11	1782	110.070724880323	0
11	1860	115.070724880323	0
11	1938	120.070724880323	0
11	2016	125.070724880323	0
11	2094	130.070724880323	0
11	2172	135.070724880323	0
11	2250	140.070724880323	0
11	2328	145.070724880323	0
11	2406	150.070724880323	0
11	2484	155.070724880323	0
11	2562	160.070724880323	0
11	2640	165.070724880323	0
11	2718	170.070724880323	0
11	2796	175.070724880323	0
11	2874	180.070724880323	0
11	2952	185.070724880323	0
11	3030	190.070724880323	0
11	3108	195.070724880323	0
12	0	0	0
12	1	0	0
12	27	0.070724880323	0
12	62	0.754421980046	0
12	121	1.076739729725	0
12	199	5.070724880323	0
12	277	10.070724880323	0
12	355	15.070724880323	0
12	433	20.070724880323	0
12	511	25.070724880323	0
12	553	30.070724880323	0
12	612	31.282733289059	0
12	690	35.070724880323	0
12	768	40.070724880323	0
12	846	45.070724880323	0
12	924	50.070724880323	0
12	1002	55.070724880323	0
12	1080	60.070724880323	0
12	1158	65.070724880323	0
12	1236	70.070724880323	0
12	1314	75.070724880323	0
12	1392	80.070724880323	0
12	1470	85.070724880323	0
12	1548	90.070724880323	0
12	1626	95.070724880323	0
12	1704	100.070724880323	0
12	1782	105.070724880323	0
12	1860	110.070724880323	0
12	1938	115.070724880323	0
12	2016	120.070724880323	0
12	2094	125.070724880323	0
12	2172	130.070724880323	0
12	2250	135.070724880323	0
12	2328	140.070724880323	0
12	2406	145.070724880323	0
12	2484	150.070724880323	0
12	2562	155.070724880323	0
12	2640	160.070724880323	0
12	2718	165.070724880323	0
12	2796	170.070724880323	0
12	2874	175.070724880323	0
12	2952	180.070724880323	0
12	3030	185.070724880323	0
12	3108	190.070724880323	0
12	3186	195.070724880323	0
13	27	0.070724880323	0
13	62	0.754421980046	0
13	121	1.076739729725	0
13	199	5.070724880323	0
13	277	10.070724880323	0
13	355	15.070724880323	0
13	433	20.070724880323	0
13	511	25.070724880323	0
13	553	30.070724880323	0
13	612	31.282733289059	0
13	690	35.070724880323	0
13	768	40.070724880323	0
13	846	45.070724880323	0
13	924	50.070724880323	0
13	1002	55.070724880323	0
13	1080	60.070724880323	0
13	1158	65.070724880323	0
13	1236	70.070724880323	0
13	1314	75.070724880323	0
13	1392	80.070724880323	0
13	1470	85.070724880323	0
13	1548	90.070724880323	0
13	1626	95.070724880323	0
13	1704	100.070724880323	0
13	1782	105.070724880323	0
13	1860	110.070724880323	0
13	1938	115.070724880323	0
13	2016	120.070724880323	0
13	2094	125.070724880323	0
13	2172	130.070724880323	0
13	2250	135.070724880323	0
13	2328	140.070724880323	0
13	2406	145.070724880323	0
13	2484	150.070724880323	0
13	2562	155.070724880323	0
13	2640	160.070724880323	0
13	2718	165.070724880323	0
13	2796	170.070724880323	0
13	2874	175.070724880323	0
13	2952	180.070724880323	0
13	3030	185.070724880323	0
13	3108	190.070724880323	0
13	3186	195.070724880323	0
14	0	0	1
14	1	0.070724880323	1
14	27	0.754421980046	1
14	62	1.076739729725	1
14	121	5.070724880323	1
14	199	10.070724880323	1
14	277	15.070724880323	1
14	355	20.070724880323	1
14	433	25.070724880323	1
14	511	30.070724880323	1
14	553	31.282733289059	1
14	612	35.070724880323	1
14	690	40.070724880323	1
14	768	45.070724880323	1
14	846	50.070724880323	1
14	924	55.070724880323	1
14	1002	60.070724880323	1
14	1080	65.070724880323	1
14	1158	70.070724880323	1
14	1236	75.070724880323	1
14	1314	80.070724880323	1
14	1392	85.070724880323	1
14	1470	90.070724880323	1
14	1548	95.070724880323	1
14	1626	100.070724880323	1
14	1704	105.070724880323	1
14	1782	110.070724880323	1
14	1860	115.070724880323	1
14	1938	120.070724880323	1
14	2016	125.070724880323	1
14	2094	130.070724880323	1
14	2172	135.070724880323	1
14	2250	140.070724880323	1
14	2328	145.070724880323	1
14	2406	150.070724880323	1
14	2484	155.070724880323	1
14	2562	160.070724880323	1
14	2640	165.070724880323	1
14	2718	170.070724880323	1
14	2796	175.070724880323	1
14	2874	180.070724880323	1
14	2952	185.070724880323	1
14	3030	190.070724880323	1
14	3108	195.070724880323	1
15	1	0.070724880323	0
15	27	0.754421980046	0
15	62	1.076739729725	0
15	121	5.070724880323	0
15	199	10.070724880323	0
15	277	15.070724880323	0
15	355	20.070724880323	0
15	433	25.070724880323	0
15	511	30.070724880323	0
15	553	31.282733289059	0
15	612	35.070724880323	0
15	690	40.070724880323	0
15	768	45.070724880323	0
15	846	50.070724880323	0
15	924	55.070724880323	0
15	1002	60.070724880323	0
15	1080	65.070724880323	0
15	1158	70.070724880323	0
15	1236	75.070724880323	0
15	1314	80.070724880323	0
15	1392	85.070724880323	0
15	1470	90.070724880323	0
15	1548	95.070724880323	0
15	1626	100.070724880323	0
15	1704	105.070724880323	0
15	1782	110.070724880323	0
15	1860	115.070724880323	0
15	1938	120.070724880323	0
15	2016	125.070724880323	0
15	2094	130.070724880323	0
15	2172	135.070724880323	0
15	2250	140.070724880323	0
15	2328	145.070724880323	0
15	2406	150.070724880323	0
15	2484	155.070724880323	0
15	2562	160.070724880323	0
15	2640	165.070724880323	0
15	2718	170.070724880323	0
15	2796	175.070724880323	0
15	2874	180.070724880323	0
15	2952	185.070724880323	0
15	3030	190.070724880323	0
15	3108	195.070724880323	0
16	0	0	1
17	1	0.070724880323	0
17	27	0.754421980046	0
17	62	1.076739729725	0
17	121	5.070724880323	0
17	199	10.070724880323	0
17	277	15.070724880323	0
17	355	20.070724880323	0
17	433	25.070724880323	0
17	511	30.070724880323	0
17	553	31.282733289059	0
17	612	35.070724880323	0
17	690	40.070724880323	0
17	768	45.070724880323	0
17	846	50.070724880323	0
17	924	55.070724880323	0
17	1002	60.070724880323	0
17	1080	65.070724880323	0
17	1158	70.070724880323	0
17	1236	75.070724880323	0
17	1314	80.070724880323	0
17	1392	85.070724880323	0
17	1470	90.070724880323	0
17	1548	95.070724880323	0
17	1626	100.070724880323	0
17	1704	105.070724880323	0
17	1782	110.070724880323	0
17	1860	115.070724880323	0
17	1938	120.070724880323	0
17	2016	125.070724880323	0
17	2094	130.070724880323	0
17	2172	135.070724880323	0
17	2250	140.070724880323	0
17	2328	145.070724880323	0
17	2406	150.070724880323	0
17	2484	155.070724880323	0
17	2562	160.070724880323	0
17	2640	165.070724880323	0
17	2718	170.070724880323	0
17	2796	175.070724880323	0
17	2874	180.070724880323	0
17	2952	185.070724880323	0
17	3030	190.070724880323	0
17	3108	195.070724880323	0
18	0	0	0
18	13	0	0
18	23	0.399449410591	0
18	40	0.708147822181	0
18	133	0.938319131494	0
18	211	5.708147822181	0
18	289	10.708147822181	0
18	367	15.708147822181	0
18	445	20.708147822181	0
18	523	25.708147822181	0